Program Version,EnergyPlus, Version 8.8.0-Unknown, YMD=2019.06.04 18:17
1,5,Environment Title[],Latitude[deg],Longitude[deg],Time Zone[],Elevation[m]
2,6,Day of Simulation[],Month[],Day of Month[],DST Indicator[1=yes 0=no],Hour[],StartMinute[],EndMinute[],DayType
3,3,Cumulative Day of Simulation[],Month[],Day of Month[],DST Indicator[1=yes 0=no],DayType  ! When Daily Report Variables Requested
4,2,Cumulative Days of Simulation[],Month[]  ! When Monthly Report Variables Requested
5,1,Cumulative Days of Simulation[] ! When Run Period Report Variables Requested
6,1,Environment,Site Outdoor Air Drybulb Temperature [C] !TimeStep
133,1,WESTDATACENTER_EQUIP,ITE CPU Electric Power [W] !Hourly
134,1,WESTDATACENTER_EQUIP,ITE Fan Electric Power [W] !Hourly
135,1,WESTDATACENTER_EQUIP,ITE UPS Electric Power [W] !Hourly
136,1,WESTDATACENTER_EQUIP,ITE CPU Electric Power at Design Inlet Conditions [W] !Hourly
137,1,WESTDATACENTER_EQUIP,ITE Fan Electric Power at Design Inlet Conditions [W] !Hourly
138,1,WESTDATACENTER_EQUIP,ITE UPS Heat Gain to Zone Rate [W] !Hourly
139,1,WESTDATACENTER_EQUIP,ITE Total Heat Gain to Zone Rate [W] !Hourly
173,1,WESTDATACENTER_EQUIP,ITE Standard Density Air Volume Flow Rate [m3/s] !Hourly
174,1,WESTDATACENTER_EQUIP,ITE Air Inlet Dry-Bulb Temperature [C] !Hourly
175,1,WESTDATACENTER_EQUIP,ITE Air Inlet Dewpoint Temperature [C] !Hourly
176,1,WESTDATACENTER_EQUIP,ITE Air Inlet Relative Humidity [%] !Hourly
177,1,WESTDATACENTER_EQUIP,ITE Air Outlet Dry-Bulb Temperature [C] !Hourly
178,1,WESTDATACENTER_EQUIP,ITE Supply Heat Index [] !Hourly
179,1,WESTDATACENTER_EQUIP,ITE Air Inlet Operating Range Exceeded Time [hr] !Hourly
180,1,WESTDATACENTER_EQUIP,ITE Air Inlet Dry-Bulb Temperature Above Operating Range Time [hr] !Hourly
181,1,WESTDATACENTER_EQUIP,ITE Air Inlet Dry-Bulb Temperature Below Operating Range Time [hr] !Hourly
182,1,WESTDATACENTER_EQUIP,ITE Air Inlet Dewpoint Temperature Above Operating Range Time [hr] !Hourly
183,1,WESTDATACENTER_EQUIP,ITE Air Inlet Dewpoint Temperature Below Operating Range Time [hr] !Hourly
184,1,WESTDATACENTER_EQUIP,ITE Air Inlet Relative Humidity Above Operating Range Time [hr] !Hourly
185,1,WESTDATACENTER_EQUIP,ITE Air Inlet Relative Humidity Below Operating Range Time [hr] !Hourly
186,1,WESTDATACENTER_EQUIP,ITE Air Inlet Dry-Bulb Temperature Difference Above Operating Range [deltaC] !Hourly
187,1,WESTDATACENTER_EQUIP,ITE Air Inlet Dry-Bulb Temperature Difference Below Operating Range [deltaC] !Hourly
188,1,WESTDATACENTER_EQUIP,ITE Air Inlet Dewpoint Temperature Difference Above Operating Range [deltaC] !Hourly
189,1,WESTDATACENTER_EQUIP,ITE Air Inlet Dewpoint Temperature Difference Below Operating Range [deltaC] !Hourly
190,1,WESTDATACENTER_EQUIP,ITE Air Inlet Relative Humidity Difference Above Operating Range [%] !Hourly
191,1,WESTDATACENTER_EQUIP,ITE Air Inlet Relative Humidity Difference Below Operating Range [%] !Hourly
192,1,WEST ZONE,Zone ITE CPU Electric Power [W] !Hourly
193,1,WEST ZONE,Zone ITE Fan Electric Power [W] !Hourly
194,1,WEST ZONE,Zone ITE UPS Electric Power [W] !Hourly
195,1,WEST ZONE,Zone ITE CPU Electric Power at Design Inlet Conditions [W] !Hourly
196,1,WEST ZONE,Zone ITE Fan Electric Power at Design Inlet Conditions [W] !Hourly
197,1,WEST ZONE,Zone ITE UPS Heat Gain to Zone Rate [W] !Hourly
198,1,WEST ZONE,Zone ITE Total Heat Gain to Zone Rate [W] !Hourly
199,1,EASTDATACENTER_EQUIP,ITE CPU Electric Power [W] !Hourly
200,1,EASTDATACENTER_EQUIP,ITE Fan Electric Power [W] !Hourly
201,1,EASTDATACENTER_EQUIP,ITE UPS Electric Power [W] !Hourly
202,1,EASTDATACENTER_EQUIP,ITE CPU Electric Power at Design Inlet Conditions [W] !Hourly
203,1,EASTDATACENTER_EQUIP,ITE Fan Electric Power at Design Inlet Conditions [W] !Hourly
204,1,EASTDATACENTER_EQUIP,ITE UPS Heat Gain to Zone Rate [W] !Hourly
205,1,EASTDATACENTER_EQUIP,ITE Total Heat Gain to Zone Rate [W] !Hourly
209,1,EASTDATACENTER_EQUIP,ITE Standard Density Air Volume Flow Rate [m3/s] !Hourly
210,1,EASTDATACENTER_EQUIP,ITE Air Inlet Dry-Bulb Temperature [C] !Hourly
211,1,EASTDATACENTER_EQUIP,ITE Air Inlet Dewpoint Temperature [C] !Hourly
212,1,EASTDATACENTER_EQUIP,ITE Air Inlet Relative Humidity [%] !Hourly
213,1,EASTDATACENTER_EQUIP,ITE Air Outlet Dry-Bulb Temperature [C] !Hourly
214,1,EASTDATACENTER_EQUIP,ITE Supply Heat Index [] !Hourly
215,1,EASTDATACENTER_EQUIP,ITE Air Inlet Operating Range Exceeded Time [hr] !Hourly
216,1,EASTDATACENTER_EQUIP,ITE Air Inlet Dry-Bulb Temperature Above Operating Range Time [hr] !Hourly
217,1,EASTDATACENTER_EQUIP,ITE Air Inlet Dry-Bulb Temperature Below Operating Range Time [hr] !Hourly
218,1,EASTDATACENTER_EQUIP,ITE Air Inlet Dewpoint Temperature Above Operating Range Time [hr] !Hourly
219,1,EASTDATACENTER_EQUIP,ITE Air Inlet Dewpoint Temperature Below Operating Range Time [hr] !Hourly
220,1,EASTDATACENTER_EQUIP,ITE Air Inlet Relative Humidity Above Operating Range Time [hr] !Hourly
221,1,EASTDATACENTER_EQUIP,ITE Air Inlet Relative Humidity Below Operating Range Time [hr] !Hourly
222,1,EASTDATACENTER_EQUIP,ITE Air Inlet Dry-Bulb Temperature Difference Above Operating Range [deltaC] !Hourly
223,1,EASTDATACENTER_EQUIP,ITE Air Inlet Dry-Bulb Temperature Difference Below Operating Range [deltaC] !Hourly
224,1,EASTDATACENTER_EQUIP,ITE Air Inlet Dewpoint Temperature Difference Above Operating Range [deltaC] !Hourly
225,1,EASTDATACENTER_EQUIP,ITE Air Inlet Dewpoint Temperature Difference Below Operating Range [deltaC] !Hourly
226,1,EASTDATACENTER_EQUIP,ITE Air Inlet Relative Humidity Difference Above Operating Range [%] !Hourly
227,1,EASTDATACENTER_EQUIP,ITE Air Inlet Relative Humidity Difference Below Operating Range [%] !Hourly
228,1,EAST ZONE,Zone ITE CPU Electric Power [W] !Hourly
229,1,EAST ZONE,Zone ITE Fan Electric Power [W] !Hourly
230,1,EAST ZONE,Zone ITE UPS Electric Power [W] !Hourly
231,1,EAST ZONE,Zone ITE CPU Electric Power at Design Inlet Conditions [W] !Hourly
232,1,EAST ZONE,Zone ITE Fan Electric Power at Design Inlet Conditions [W] !Hourly
233,1,EAST ZONE,Zone ITE UPS Heat Gain to Zone Rate [W] !Hourly
234,1,EAST ZONE,Zone ITE Total Heat Gain to Zone Rate [W] !Hourly
239,1,EMS,Power Utilization Effectiveness [] !TimeStep
312,1,WEST ZONE,Zone Air Temperature [C] !TimeStep
313,1,WEST ZONE,Zone Air Relative Humidity [%] !TimeStep
314,1,WEST ZONE,Zone Thermostat Control Type [] !Hourly
315,1,WEST ZONE,Zone Thermostat Heating Setpoint Temperature [C] !Hourly
316,1,WEST ZONE,Zone Thermostat Cooling Setpoint Temperature [C] !Hourly
349,1,EAST ZONE,Zone Air Temperature [C] !TimeStep
350,1,EAST ZONE,Zone Air Relative Humidity [%] !TimeStep
351,1,EAST ZONE,Zone Thermostat Control Type [] !Hourly
352,1,EAST ZONE,Zone Thermostat Heating Setpoint Temperature [C] !Hourly
353,1,EAST ZONE,Zone Thermostat Cooling Setpoint Temperature [C] !Hourly
386,1,WEST PLENUM,Zone Thermostat Control Type [] !Hourly
387,1,WEST PLENUM,Zone Thermostat Heating Setpoint Temperature [C] !Hourly
388,1,WEST PLENUM,Zone Thermostat Cooling Setpoint Temperature [C] !Hourly
421,1,EAST PLENUM,Zone Thermostat Control Type [] !Hourly
422,1,EAST PLENUM,Zone Thermostat Heating Setpoint Temperature [C] !Hourly
423,1,EAST PLENUM,Zone Thermostat Cooling Setpoint Temperature [C] !Hourly
517,1,Whole Building,Facility Total Building Electric Demand Power [W] !Hourly
518,1,Whole Building,Facility Total HVAC Electric Demand Power [W] !Hourly
519,1,Whole Building,Facility Total Electric Demand Power [W] !Hourly
520,1,WEST ZONE,Zone Oscillating Temperatures Time [hr] !Hourly
521,1,EAST ZONE,Zone Oscillating Temperatures Time [hr] !Hourly
522,1,WEST PLENUM,Zone Oscillating Temperatures Time [hr] !Hourly
523,1,EAST PLENUM,Zone Oscillating Temperatures Time [hr] !Hourly
524,1,Facility,Facility Any Zone Oscillating Temperatures Time [hr] !Hourly
525,1,WEST ZONE,Zone Heating Setpoint Not Met Time [hr] !Hourly
526,1,WEST ZONE,Zone Heating Setpoint Not Met While Occupied Time [hr] !Hourly
527,1,WEST ZONE,Zone Cooling Setpoint Not Met Time [hr] !Hourly
528,1,WEST ZONE,Zone Cooling Setpoint Not Met While Occupied Time [hr] !Hourly
529,1,EAST ZONE,Zone Heating Setpoint Not Met Time [hr] !Hourly
530,1,EAST ZONE,Zone Heating Setpoint Not Met While Occupied Time [hr] !Hourly
531,1,EAST ZONE,Zone Cooling Setpoint Not Met Time [hr] !Hourly
532,1,EAST ZONE,Zone Cooling Setpoint Not Met While Occupied Time [hr] !Hourly
533,1,WEST PLENUM,Zone Heating Setpoint Not Met Time [hr] !Hourly
534,1,WEST PLENUM,Zone Heating Setpoint Not Met While Occupied Time [hr] !Hourly
535,1,WEST PLENUM,Zone Cooling Setpoint Not Met Time [hr] !Hourly
536,1,WEST PLENUM,Zone Cooling Setpoint Not Met While Occupied Time [hr] !Hourly
537,1,EAST PLENUM,Zone Heating Setpoint Not Met Time [hr] !Hourly
538,1,EAST PLENUM,Zone Heating Setpoint Not Met While Occupied Time [hr] !Hourly
539,1,EAST PLENUM,Zone Cooling Setpoint Not Met Time [hr] !Hourly
540,1,EAST PLENUM,Zone Cooling Setpoint Not Met While Occupied Time [hr] !Hourly
541,1,WEST ZONE VAV SYSTEM,Zone Air Terminal VAV Damper Position [] !Hourly
542,1,WEST ZONE VAV SYSTEM,Zone Air Terminal Minimum Air Flow Fraction [] !Hourly
543,1,WEST ZONE VAV SYSTEM,Zone Air Terminal Outdoor Air Volume Flow Rate [m3/s] !Hourly
544,1,EAST ZONE VAV SYSTEM,Zone Air Terminal VAV Damper Position [] !Hourly
545,1,EAST ZONE VAV SYSTEM,Zone Air Terminal Minimum Air Flow Fraction [] !Hourly
546,1,EAST ZONE VAV SYSTEM,Zone Air Terminal Outdoor Air Volume Flow Rate [m3/s] !Hourly
599,1,WEST ZONE CW COOLING COIL,Cooling Coil Total Cooling Rate [W] !TimeStep
600,1,WEST ZONE CW COOLING COIL,Cooling Coil Sensible Cooling Rate [W] !TimeStep
603,1,EAST ZONE CW COOLING COIL,Cooling Coil Total Cooling Rate [W] !TimeStep
604,1,EAST ZONE CW COOLING COIL,Cooling Coil Sensible Cooling Rate [W] !TimeStep
605,1,WEST ZONE SUPPLY FAN,Fan Electric Power [W] !Hourly
606,1,WEST ZONE SUPPLY FAN,Fan Rise in Air Temperature [deltaC] !Hourly
607,1,WEST ZONE SUPPLY FAN,Fan Heat Gain to Air [W] !Hourly
608,1,WEST ZONE SUPPLY FAN,Fan Electric Energy [J] !Hourly
639,1,WEST ZONE SUPPLY FAN,Fan Air Mass Flow Rate [kg/s] !Hourly
640,1,EAST ZONE SUPPLY FAN,Fan Electric Power [W] !Hourly
641,1,EAST ZONE SUPPLY FAN,Fan Rise in Air Temperature [deltaC] !Hourly
642,1,EAST ZONE SUPPLY FAN,Fan Heat Gain to Air [W] !Hourly
643,1,EAST ZONE SUPPLY FAN,Fan Electric Energy [J] !Hourly
644,1,EAST ZONE SUPPLY FAN,Fan Air Mass Flow Rate [kg/s] !Hourly
645,1,WEST DATA CENTER IEC,Evaporative Cooler Total Stage Effectiveness [] !TimeStep
646,1,WEST DATA CENTER IEC,Evaporative Cooler Operating Mode Status [] !TimeStep
647,1,EAST DATA CENTER IEC,Evaporative Cooler Total Stage Effectiveness [] !TimeStep
648,1,EAST DATA CENTER IEC,Evaporative Cooler Operating Mode Status [] !TimeStep
649,1,WEST DATA CENTER DEC,Evaporative Cooler Stage Effectiveness [] !TimeStep
650,1,EAST DATA CENTER DEC,Evaporative Cooler Stage Effectiveness [] !TimeStep
662,1,WEST DATA CENTER IEC,Evaporative Cooler Electric Power [W] !TimeStep
663,1,WEST DATA CENTER IEC,Evaporative Cooler Water Volume [m3] !TimeStep
726,1,EAST DATA CENTER IEC,Evaporative Cooler Electric Power [W] !TimeStep
727,1,EAST DATA CENTER IEC,Evaporative Cooler Water Volume [m3] !TimeStep
730,1,WEST DATA CENTER DEC,Evaporative Cooler Electric Power [W] !TimeStep
731,1,WEST DATA CENTER DEC,Evaporative Cooler Water Volume [m3] !TimeStep
734,1,EAST DATA CENTER DEC,Evaporative Cooler Electric Power [W] !TimeStep
735,1,EAST DATA CENTER DEC,Evaporative Cooler Water Volume [m3] !TimeStep
737,1,WEST DX COOLING COIL,Cooling Coil Total Cooling Rate [W] !TimeStep
739,1,WEST DX COOLING COIL,Cooling Coil Sensible Cooling Rate [W] !TimeStep
741,1,EAST DX COOLING COIL,Cooling Coil Total Cooling Rate [W] !TimeStep
743,1,EAST DX COOLING COIL,Cooling Coil Sensible Cooling Rate [W] !TimeStep
766,1,CHILLER,Chiller Evaporator Cooling Rate [W] !Hourly
788,1,CHILLER,Chiller Evaporator Inlet Temperature [C] !Hourly
789,1,CHILLER,Chiller Evaporator Outlet Temperature [C] !Hourly
790,1,CHILLER,Chiller Condenser Heat Transfer Rate [W] !Hourly
802,1,CHILLER,Chiller Condenser Inlet Temperature [C] !Hourly
803,1,CHILLER,Chiller Condenser Outlet Temperature [C] !Hourly
892,1,WEST ZONE INLET NODE,System Node Temperature [C] !TimeStep
893,1,WEST ZONE INLET NODE,System Node Mass Flow Rate [kg/s] !TimeStep
894,1,WEST OUTSIDE AIR INLET NODE,System Node Temperature [C] !TimeStep
895,1,WEST OUTSIDE AIR INLET NODE,System Node Mass Flow Rate [kg/s] !TimeStep
896,1,WEST IEC SECONDARY AIR INLET NODE,System Node Temperature [C] !TimeStep
897,1,WEST IEC SECONDARY AIR INLET NODE,System Node Mass Flow Rate [kg/s] !TimeStep
898,1,WEST ZONE DEC OUTLET NODE,System Node Temperature [C] !TimeStep
899,1,WEST ZONE DEC OUTLET NODE,System Node Setpoint Temperature [C] !TimeStep
900,1,WEST ZONE IEC OUTLET NODE,System Node Temperature [C] !TimeStep
901,1,WEST ZONE IEC OUTLET NODE,System Node Setpoint Temperature [C] !TimeStep
902,1,WEST ZONE CCOIL AIR OUTLET NODE,System Node Temperature [C] !TimeStep
903,1,WEST ZONE CCOIL AIR OUTLET NODE,System Node Setpoint Temperature [C] !TimeStep
904,1,WEST AIR LOOP OUTLET NODE,System Node Temperature [C] !TimeStep
905,1,WEST AIR LOOP OUTLET NODE,System Node Setpoint Temperature [C] !TimeStep
906,1,EAST ZONE INLET NODE,System Node Temperature [C] !TimeStep
907,1,EAST ZONE INLET NODE,System Node Mass Flow Rate [kg/s] !TimeStep
908,1,EAST OUTSIDE AIR INLET NODE,System Node Temperature [C] !TimeStep
909,1,EAST OUTSIDE AIR INLET NODE,System Node Mass Flow Rate [kg/s] !TimeStep
910,1,EAST IEC SECONDARY AIR INLET NODE,System Node Temperature [C] !TimeStep
911,1,EAST IEC SECONDARY AIR INLET NODE,System Node Mass Flow Rate [kg/s] !TimeStep
912,1,EAST ZONE DEC OUTLET NODE,System Node Temperature [C] !TimeStep
913,1,EAST ZONE DEC OUTLET NODE,System Node Setpoint Temperature [C] !TimeStep
914,1,EAST ZONE IEC OUTLET NODE,System Node Temperature [C] !TimeStep
915,1,EAST ZONE IEC OUTLET NODE,System Node Setpoint Temperature [C] !TimeStep
916,1,EAST ZONE CCOIL AIR OUTLET NODE,System Node Temperature [C] !TimeStep
917,1,EAST ZONE CCOIL AIR OUTLET NODE,System Node Setpoint Temperature [C] !TimeStep
918,1,EAST AIR LOOP OUTLET NODE,System Node Temperature [C] !TimeStep
919,1,EAST AIR LOOP OUTLET NODE,System Node Setpoint Temperature [C] !TimeStep
920,1,WEST ZONE RETURN AIR NODE,System Node Temperature [C] !TimeStep
921,1,WEST ZONE RETURN AIR NODE,System Node Mass Flow Rate [kg/s] !TimeStep
922,1,WEST ZONE MIXED AIR NODE,System Node Temperature [C] !TimeStep
923,1,WEST ZONE MIXED AIR NODE,System Node Mass Flow Rate [kg/s] !TimeStep
924,1,WEST ZONE SUPPLY FAN OUTLET NODE,System Node Temperature [C] !TimeStep
925,1,EAST ZONE SUPPLY FAN OUTLET NODE,System Node Temperature [C] !TimeStep
926,1,WEST IEC SECONDARY AIR OUTLET NODE,System Node Temperature [C] !TimeStep
927,1,WEST IEC SECONDARY AIR OUTLET NODE,System Node Mass Flow Rate [kg/s] !TimeStep
End of Data Dictionary
1,WHOLEYEARDAY,  37.62,-122.40,  -8.00,   2.00
2,1, 1, 1, 0, 1, 0.00,15.00,Tuesday
6,6.825
239,1.0300298866314462
312,22.65280321435893
313,29.39170648532776
349,23.103806115417748
350,28.579522391201139
599,0.0
600,0.0
603,0.0
604,0.0
645,0.0
647,0.0
649,0.0
650,0.0
662,0.0
663,0.0
726,0.0
727,0.0
730,0.0
731,0.0
734,0.0
735,0.0
737,0.0
739,0.0
741,0.0
743,0.0
892,12.827436924660099
893,1.7572980000000003
894,6.825
895,1.4563700044000019
896,6.825
897,0.0
898,10.01532973366639
899,10.015333
900,10.01532973366639
901,10.015333
902,10.01532973366639
903,10.015333
904,10.01532973366639
905,10.015333
906,12.984331125301832
907,1.751364
908,6.825
909,1.4595466422645994
910,6.825
911,0.0
912,10.038360857494724
913,10.038364
914,10.038360857494724
915,10.038364
916,10.038360857494724
917,10.038364
918,10.038360857494724
919,10.038364
920,22.74919190673015
921,1.7572980000000003
922,9.550984394145602
923,1.7572980000000003
924,10.01532973366639
925,10.038360857494724
926,6.825
927,0.0
646,0.0
648,0.0
2,1, 1, 1, 0, 1,15.00,30.00,Tuesday
6,6.95
239,1.0467127321365695
312,23.305607556620968
313,28.89722045834444
349,24.34379454518521
350,27.103382560957166
599,0.0
600,0.0
603,0.0
604,0.0
645,0.0
647,0.0
649,0.0
650,0.0
662,0.0
663,0.0
726,0.0
727,0.0
730,0.0
731,0.0
734,0.0
735,0.0
737,0.0
739,0.0
741,0.0
743,0.0
892,13.034350950126657
893,1.7572980000000003
894,6.95
895,1.4734726638804983
896,6.95
897,0.0
898,10.015329119530227
899,10.015333
900,10.015329119530227
901,10.015333
902,10.015329119530227
903,10.015333
904,10.015329119530227
905,10.015333
906,13.248097823771108
907,1.751364
908,6.95
909,1.4852672750632655
910,6.95
911,0.0
912,10.038359880681638
913,10.038364
914,10.038359880681638
915,10.038364
916,10.038359880681638
917,10.038364
918,10.038359880681638
919,10.038364
920,23.066783041648099
921,1.7572980000000003
922,9.551117093281557
923,1.7572980000000003
924,10.015329119530227
925,10.038359880681638
926,6.95
927,0.0
646,0.0
648,0.0
2,1, 1, 1, 0, 1,30.00,45.00,Tuesday
6,7.075
239,1.038980930532448
312,23.496306378060209
313,29.02299476648417
349,24.691916535287697
350,26.948751366491295
599,0.0
600,0.0
603,0.0
604,0.0
645,0.0
647,0.0
649,0.0
650,0.0
662,0.0
663,0.0
726,0.0
727,0.0
730,0.0
731,0.0
734,0.0
735,0.0
737,0.0
739,0.0
741,0.0
743,0.0
892,13.044957435982682
893,1.757298
894,7.075
895,1.4904107912996226
896,7.075
897,0.0
898,10.015331460155228
899,10.015333
900,10.015331460155228
901,10.015333
902,10.015331460155228
903,10.015333
904,10.015331460155228
905,10.015333
906,13.265158582658766
907,1.7513639999999998
908,7.075
909,1.5048985524975014
910,7.075
911,0.0
912,10.038362437871115
913,10.038364
914,10.038362437871115
915,10.038364
916,10.038362437871115
917,10.038364
918,10.038362437871115
919,10.038364
920,23.38876277800593
921,1.757298
922,9.551253932675915
923,1.757298
924,10.015331460155228
925,10.038362437871115
926,7.075
927,0.0
646,0.0
648,0.0
2,1, 1, 1, 0, 1,45.00,60.00,Tuesday
6,7.2
239,1.0388850614540684
312,23.619290902350345
313,29.352993558778715
349,24.941817651777208
350,27.037343802127816
599,0.0
600,0.0
603,0.0
604,0.0
645,0.0
647,0.0
649,0.0
650,0.0
662,0.0
663,0.0
726,0.0
727,0.0
730,0.0
731,0.0
734,0.0
735,0.0
737,0.0
739,0.0
741,0.0
743,0.0
892,13.057548164354202
893,1.7572980000000003
894,7.2
895,1.5039810488264088
896,7.2
897,0.0
898,10.015333944005798
899,10.015333
900,10.015333944005798
901,10.015333
902,10.015333944005798
903,10.015333
904,10.015333944005798
905,10.015333
906,13.285420636242014
907,1.7513640000000002
908,7.2
909,1.5191681756077027
910,7.2
911,0.0
912,10.038364863844116
913,10.038364
914,10.038364863844116
915,10.038364
916,10.038364863844116
917,10.038364
918,10.038364863844116
919,10.038364
920,23.523159246716128
921,1.7572980000000003
922,9.551393371654953
923,1.7572980000000003
924,10.015333944005798
925,10.038364863844116
926,7.2
927,0.0
646,0.0
648,0.0
2,1, 1, 1, 0, 1, 0.00,60.00,Tuesday
133,11876.24547633202
134,8158.833355784238
135,2003.5078832116255
136,13936.849545599995
137,10219.334400000002
138,2003.5078832116255
139,22038.58671532788
173,2.9947351087820417
174,13.891047567326233
175,4.321545817988978
176,0.5242514264412377
177,21.84089462508979
178,0.11523184869965156
179,1.0
180,0.0
181,0.0
182,0.0
183,0.0
184,0.0
185,1.0
186,0.0
187,0.0
188,0.0
189,0.0
190,0.0
191,-19.475748573558766
192,11876.24547633202
193,8158.833355784238
194,2003.5078832116255
195,13936.849545599995
196,10219.334400000002
197,2003.5078832116255
198,22038.58671532788
199,13729.807193721692
200,9583.063536544872
201,2331.287073026656
202,15546.354479999996
203,11399.520000000002
204,2331.287073026656
205,25644.157803293216
209,3.514359552580104
210,14.123602524579699
211,4.320261002001482
212,0.5163658691967251
213,22.013090104222074
214,0.12219449606280286
215,1.0
216,0.0
217,0.0
218,0.0
219,0.0
220,0.0
221,1.0
222,0.0
223,0.0
224,0.0
225,0.0
226,0.0
227,-19.483634130803276
228,13729.807193721692
229,9583.063536544872
230,2331.287073026656
231,15546.354479999996
232,11399.520000000002
233,2331.287073026656
234,25644.157803293216
315,20.0
316,23.0
352,20.0
353,23.0
387,0.0
388,0.0
422,0.0
423,0.0
525,0.0
526,0.0
527,0.75
528,0.0
529,0.0
530,0.0
531,0.75
532,0.0
533,0.0
534,0.0
535,0.0
536,0.0
537,0.0
538,0.0
539,0.0
540,0.0
314,4.0
351,4.0
386,0.0
421,0.0
517,47711.14451862109
518,1933.9658594376613
519,49645.11037805876
520,0.0
521,0.08333333333333333
522,0.0
523,0.0
524,0.08333333333333333
541,0.28170398387149639
542,0.4
543,1.2300914463813977
544,0.2505880464353989
545,0.4
546,1.2393616451205572
605,919.6012446282475
606,0.4641438663999037
607,827.6411201654228
608,3310564.480661691
639,1.757298
640,1014.3646148094136
641,0.5137061183348983
642,912.9281533284723
643,3651712.613313889
644,1.751364
766,0.0
788,10.204275065416635
789,10.204275065416635
790,0.0
802,9.932642824348998
803,9.932642824348998
2,1, 1, 1, 0, 2, 0.00,15.00,Tuesday
6,7.2
239,1.0386061602698589
312,23.75727705792095
313,29.993390311018787
349,25.23772990420147
350,27.371702210325155
599,0.0
600,0.0
603,0.0
604,0.0
645,0.0
647,0.0
649,0.0
650,0.0
662,0.0
663,0.0
726,0.0
727,0.0
730,0.0
731,0.0
734,0.0
735,0.0
737,0.0
739,0.0
741,0.0
743,0.0
892,13.064979468051032
893,1.7572980000000003
894,7.2
895,1.5065750649528389
896,7.2
897,0.0
898,10.0153171942536
899,10.015333
900,10.0153171942536
901,10.015333
902,10.0153171942536
903,10.015333
904,10.0153171942536
905,10.015333
906,13.299372247637998
907,1.751364
908,7.2
909,1.5235071669528489
910,7.2
911,0.0
912,10.038347906611313
913,10.038364
914,10.038347906611313
915,10.038364
916,10.038347906611313
917,10.038364
918,10.038347906611313
919,10.038364
920,23.68856968932865
921,1.7572980000000003
922,9.551394507101757
923,1.7572980000000003
924,10.0153171942536
925,10.038347906611313
926,7.2
927,0.0
646,0.0
648,0.0
2,1, 1, 1, 0, 2,15.00,30.00,Tuesday
6,7.2
239,1.0384863593156964
312,23.856668798383308
313,30.44572242384825
349,25.45659826409892
350,27.618101810084736
599,0.0
600,0.0
603,0.0
604,0.0
645,0.0
647,0.0
649,0.0
650,0.0
662,0.0
663,0.0
726,0.0
727,0.0
730,0.0
731,0.0
734,0.0
735,0.0
737,0.0
739,0.0
741,0.0
743,0.0
892,13.072613915151472
893,1.7572980000000003
894,7.2
895,1.5076543845803037
896,7.2
897,0.0
898,10.01531893707895
899,10.015333
900,10.01531893707895
901,10.015333
902,10.01531893707895
903,10.015333
904,10.01531893707895
905,10.015333
906,13.314867039872397
907,1.751364
908,7.2
909,1.525551616201233
910,7.2
911,0.0
912,10.038349355853239
913,10.038364
914,10.038349355853239
915,10.038364
916,10.038349355853239
917,10.038364
918,10.038349355853239
919,10.038364
920,23.757277057920957
921,1.7572980000000003
922,9.551410083712545
923,1.7572980000000003
924,10.01531893707895
925,10.038349355853239
926,7.2
927,0.0
646,0.0
648,0.0
2,1, 1, 1, 0, 2,30.00,45.00,Tuesday
6,7.2
239,1.0383795562048193
312,23.921663041477918
313,30.580016205069833
349,25.602223886081594
350,27.640702448343427
599,0.0
600,0.0
603,0.0
604,0.0
645,0.0
647,0.0
649,0.0
650,0.0
662,0.0
663,0.0
726,0.0
727,0.0
730,0.0
731,0.0
734,0.0
735,0.0
737,0.0
739,0.0
741,0.0
743,0.0
892,13.0818699713793
893,1.7572980000000003
894,7.2
895,1.5091876251403933
896,7.2
897,0.0
898,10.015317759154995
899,10.015333
900,10.015317759154995
901,10.015333
902,10.015317759154995
903,10.015333
904,10.015317759154995
905,10.015333
906,13.333600903287176
907,1.751364
908,7.2
909,1.5283003890923726
910,7.2
911,0.0
912,10.03834783016441
913,10.038364
914,10.03834783016441
915,10.038364
916,10.03834783016441
917,10.038364
918,10.03834783016441
919,10.038364
920,23.85666879838331
921,1.7572980000000003
922,9.551424106566082
923,1.7572980000000003
924,10.015317759154995
925,10.03834783016441
926,7.2
927,0.0
646,0.0
648,0.0
2,1, 1, 1, 0, 2,45.00,60.00,Tuesday
6,7.2
239,1.038203582690155
312,23.974466935729575
313,30.55162555092651
349,25.72034771078577
350,27.523764357828406
599,0.0
600,0.0
603,0.0
604,0.0
645,0.0
647,0.0
649,0.0
650,0.0
662,0.0
663,0.0
726,0.0
727,0.0
730,0.0
731,0.0
734,0.0
735,0.0
737,0.0
739,0.0
741,0.0
743,0.0
892,13.089754258773662
893,1.7572980000000003
894,7.2
895,1.5101684841865737
896,7.2
897,0.0
898,10.015326209127436
899,10.015333
900,10.015326209127436
901,10.015333
902,10.015326209127436
903,10.015333
904,10.015326209127436
905,10.015333
906,13.350008107909592
907,1.751364
908,7.2
909,1.5300827853137778
910,7.2
911,0.0
912,10.038356300983966
913,10.038364
914,10.038356300983966
915,10.038364
916,10.038356300983966
917,10.038364
918,10.038356300983966
919,10.038364
920,23.92166304147792
921,1.7572980000000003
922,9.551439339686987
923,1.7572980000000003
924,10.015326209127436
925,10.038356300983966
926,7.2
927,0.0
646,0.0
648,0.0
2,1, 1, 1, 0, 2, 0.00,60.00,Tuesday
133,12345.976336719663
134,8628.54073080313
135,2097.451706752279
136,13936.849545599995
137,10219.334400000002
138,2097.451706752279
139,23071.96877427507
173,3.1627261391975
174,14.143841972664795
175,5.372161490462705
176,0.554895858374015
177,22.009502428248707
178,0.12009689318337807
179,1.0
180,0.0
181,0.0
182,0.0
183,0.0
184,0.0
185,1.0
186,0.0
187,0.0
188,0.0
189,0.0
190,0.0
191,-19.445104141625984
192,12345.976336719663
193,8628.54073080313
194,2097.451706752279
195,13936.849545599995
196,10219.334400000002
197,2097.451706752279
198,23071.96877427507
199,14538.039787327134
200,10391.255720541116
201,2492.9295507868246
202,15546.354479999996
203,11399.520000000002
204,2492.9295507868246
205,27422.225058655073
209,3.8039410914792097
210,14.513536224593328
211,5.3707674004470349
212,0.5417172705657978
213,22.28644342856447
214,0.13405843561462167
215,1.0
216,0.0
217,0.0
218,0.0
219,0.0
220,0.0
221,1.0
222,0.0
223,0.0
224,0.0
225,0.0
226,0.0
227,-19.458282729434204
228,14538.039787327134
229,10391.255720541116
230,2492.9295507868246
231,15546.354479999996
232,11399.520000000002
233,2492.9295507868246
234,27422.225058655073
315,20.0
316,23.0
352,20.0
353,23.0
387,0.0
388,0.0
422,0.0
423,0.0
525,0.0
526,0.0
527,1.0
528,0.0
529,0.0
530,0.0
531,1.0
532,0.0
533,0.0
534,0.0
535,0.0
536,0.0
537,0.0
538,0.0
539,0.0
540,0.0
314,4.0
351,4.0
386,0.0
421,0.0
517,50522.59383293014
518,1933.9658594376613
519,52456.5596923678
520,0.0
521,0.0
522,0.0
523,0.0
524,0.0
541,0.28170398387149639
542,0.4
543,1.2527967919623154
544,0.2505880464353989
545,0.4
546,1.268132127552532
605,919.6012446282475
606,0.4639030156369026
607,827.6411201654228
608,3310564.480661691
639,1.757298
640,1014.3646148094136
641,0.5134407415370612
642,912.9281533284723
643,3651712.613313889
644,1.751364
766,0.0
788,10.204275065416635
789,10.204275065416635
790,0.0
802,9.932642824348998
803,9.932642824348998
2,1, 1, 1, 0, 3, 0.00,15.00,Tuesday
6,7.075
239,1.0380503154578816
312,24.018930753094084
313,30.517915851585195
349,25.824570840506227
350,27.398610353759918
599,0.0
600,0.0
603,0.08984957754041265
604,0.08984957754041265
645,0.0
647,0.0
649,0.0
650,0.0
662,0.0
663,0.0
726,0.0
727,0.0
730,0.0
731,0.0
734,0.0
735,0.0
737,0.0
739,0.0
741,0.0
743,0.0
892,13.096814389079779
893,1.7572980000000003
894,7.075
895,1.4998010293422426
896,7.075
897,0.0
898,10.01537882415867
899,10.015333
900,10.01537882415867
901,10.015333
902,10.01537882415867
903,10.015333
904,10.01537882415867
905,10.015333
906,13.364998227566801
907,1.751364
908,7.075
909,1.5212556060608789
910,7.075
911,0.0
912,10.038415473271418
913,10.038364
914,10.038415473271418
915,10.038364
916,10.038415473271418
917,10.038364
918,10.038364937538514
919,10.038364
920,23.974466935729575
921,1.7572980000000003
922,9.551446132477832
923,1.7572980000000003
924,10.01537882415867
925,10.038415473271418
926,7.075
927,0.0
646,0.0
648,0.0
2,1, 1, 1, 0, 3,15.00,30.00,Tuesday
6,6.95
239,1.0379221742647618
312,24.054703691414728
313,30.382349721895364
349,25.91489017105977
350,27.195178766945884
599,0.0
600,0.0
603,0.0929242400509043
604,0.0929242400509043
645,0.0
647,0.0
649,0.0
650,0.0
662,0.0
663,0.0
726,0.0
727,0.0
730,0.0
731,0.0
734,0.0
735,0.0
737,0.0
739,0.0
741,0.0
743,0.0
892,13.1032804822923
893,1.7572980000000003
894,6.95
895,1.4895238345461386
896,6.95
897,0.0
898,10.015378418559788
899,10.015333
900,10.015378418559788
901,10.015333
902,10.015378418559788
903,10.015333
904,10.015378418559788
905,10.015333
906,13.378837217811693
907,1.751364
908,6.95
909,1.5124842986363326
910,6.95
911,0.0
912,10.038415350748546
913,10.038364
914,10.038415350748546
915,10.038364
916,10.038415350748546
917,10.038364
918,10.038363080451774
919,10.038364
920,24.018930753094076
921,1.7572980000000003
922,9.551400323257408
923,1.7572980000000003
924,10.015378418559788
925,10.038415350748546
926,6.95
927,0.0
646,0.0
648,0.0
2,1, 1, 1, 0, 3,30.00,45.00,Tuesday
6,6.825
239,1.0378086020317446
312,24.083690112842665
313,30.120724602721674
349,25.992620404306629
350,26.89123261518799
599,0.0
600,0.0
603,0.09292389239689408
604,0.09292389239689408
645,0.0
647,0.0
649,0.0
650,0.0
662,0.0
663,0.0
726,0.0
727,0.0
730,0.0
731,0.0
734,0.0
735,0.0
737,0.0
739,0.0
741,0.0
743,0.0
892,13.109138440396656
893,1.7572980000000003
894,6.825
895,1.479301266732826
896,6.825
897,0.0
898,10.015380193532267
899,10.015333
900,10.015380193532267
901,10.015333
902,10.015380193532267
903,10.015333
904,10.015380193532267
905,10.015333
906,13.391467858579159
907,1.751364
908,6.825
909,1.5037370912937694
910,6.825
911,0.0
912,10.03841695314789
913,10.038364
914,10.03841695314789
915,10.038364
916,10.03841695314789
917,10.038364
918,10.038364677659807
919,10.038364
920,24.054703691414728
921,1.7572980000000003
922,9.551354937757696
923,1.7572980000000003
924,10.015380193532267
925,10.03841695314789
926,6.825
927,0.0
646,0.0
648,0.0
2,1, 1, 1, 0, 3,45.00,60.00,Tuesday
6,6.7
239,1.0377080563713853
312,24.107889671480867
313,29.795187032788268
349,26.060208170014325
350,26.53590162604127
599,0.0
600,0.0
603,0.09292357274701022
604,0.09292357274701022
645,0.0
647,0.0
649,0.0
650,0.0
662,0.0
663,0.0
726,0.0
727,0.0
730,0.0
731,0.0
734,0.0
735,0.0
737,0.0
739,0.0
741,0.0
743,0.0
892,13.114264308320048
893,1.7572980000000003
894,6.7
895,1.4691453709139906
896,6.7
897,0.0
898,10.01538285743387
899,10.015333
900,10.01538285743387
901,10.015333