Program Version,EnergyPlus, Version 8.8.0-Unknown, YMD=2019.06.05 12:11
1,5,Environment Title[],Latitude[deg],Longitude[deg],Time Zone[],Elevation[m]
2,6,Day of Simulation[],Month[],Day of Month[],DST Indicator[1=yes 0=no],Hour[],StartMinute[],EndMinute[],DayType
3,3,Cumulative Day of Simulation[],Month[],Day of Month[],DST Indicator[1=yes 0=no],DayType  ! When Daily Report Variables Requested
4,2,Cumulative Days of Simulation[],Month[]  ! When Monthly Report Variables Requested
5,1,Cumulative Days of Simulation[] ! When Run Period Report Variables Requested
6,1,Environment,Site Outdoor Air Drybulb Temperature [C] !TimeStep
133,1,WESTDATACENTER_EQUIP,ITE CPU Electric Power [W] !Hourly
134,1,WESTDATACENTER_EQUIP,ITE Fan Electric Power [W] !Hourly
135,1,WESTDATACENTER_EQUIP,ITE UPS Electric Power [W] !Hourly
136,1,WESTDATACENTER_EQUIP,ITE CPU Electric Power at Design Inlet Conditions [W] !Hourly
137,1,WESTDATACENTER_EQUIP,ITE Fan Electric Power at Design Inlet Conditions [W] !Hourly
138,1,WESTDATACENTER_EQUIP,ITE UPS Heat Gain to Zone Rate [W] !Hourly
139,1,WESTDATACENTER_EQUIP,ITE Total Heat Gain to Zone Rate [W] !Hourly
173,1,WESTDATACENTER_EQUIP,ITE Standard Density Air Volume Flow Rate [m3/s] !Hourly
174,1,WESTDATACENTER_EQUIP,ITE Air Inlet Dry-Bulb Temperature [C] !Hourly
175,1,WESTDATACENTER_EQUIP,ITE Air Inlet Dewpoint Temperature [C] !Hourly
176,1,WESTDATACENTER_EQUIP,ITE Air Inlet Relative Humidity [%] !Hourly
177,1,WESTDATACENTER_EQUIP,ITE Air Outlet Dry-Bulb Temperature [C] !Hourly
178,1,WESTDATACENTER_EQUIP,ITE Supply Heat Index [] !Hourly
179,1,WESTDATACENTER_EQUIP,ITE Air Inlet Operating Range Exceeded Time [hr] !Hourly
180,1,WESTDATACENTER_EQUIP,ITE Air Inlet Dry-Bulb Temperature Above Operating Range Time [hr] !Hourly
181,1,WESTDATACENTER_EQUIP,ITE Air Inlet Dry-Bulb Temperature Below Operating Range Time [hr] !Hourly
182,1,WESTDATACENTER_EQUIP,ITE Air Inlet Dewpoint Temperature Above Operating Range Time [hr] !Hourly
183,1,WESTDATACENTER_EQUIP,ITE Air Inlet Dewpoint Temperature Below Operating Range Time [hr] !Hourly
184,1,WESTDATACENTER_EQUIP,ITE Air Inlet Relative Humidity Above Operating Range Time [hr] !Hourly
185,1,WESTDATACENTER_EQUIP,ITE Air Inlet Relative Humidity Below Operating Range Time [hr] !Hourly
186,1,WESTDATACENTER_EQUIP,ITE Air Inlet Dry-Bulb Temperature Difference Above Operating Range [deltaC] !Hourly
187,1,WESTDATACENTER_EQUIP,ITE Air Inlet Dry-Bulb Temperature Difference Below Operating Range [deltaC] !Hourly
188,1,WESTDATACENTER_EQUIP,ITE Air Inlet Dewpoint Temperature Difference Above Operating Range [deltaC] !Hourly
189,1,WESTDATACENTER_EQUIP,ITE Air Inlet Dewpoint Temperature Difference Below Operating Range [deltaC] !Hourly
190,1,WESTDATACENTER_EQUIP,ITE Air Inlet Relative Humidity Difference Above Operating Range [%] !Hourly
191,1,WESTDATACENTER_EQUIP,ITE Air Inlet Relative Humidity Difference Below Operating Range [%] !Hourly
192,1,WEST ZONE,Zone ITE CPU Electric Power [W] !Hourly
193,1,WEST ZONE,Zone ITE Fan Electric Power [W] !Hourly
194,1,WEST ZONE,Zone ITE UPS Electric Power [W] !Hourly
195,1,WEST ZONE,Zone ITE CPU Electric Power at Design Inlet Conditions [W] !Hourly
196,1,WEST ZONE,Zone ITE Fan Electric Power at Design Inlet Conditions [W] !Hourly
197,1,WEST ZONE,Zone ITE UPS Heat Gain to Zone Rate [W] !Hourly
198,1,WEST ZONE,Zone ITE Total Heat Gain to Zone Rate [W] !Hourly
199,1,EASTDATACENTER_EQUIP,ITE CPU Electric Power [W] !Hourly
200,1,EASTDATACENTER_EQUIP,ITE Fan Electric Power [W] !Hourly
201,1,EASTDATACENTER_EQUIP,ITE UPS Electric Power [W] !Hourly
202,1,EASTDATACENTER_EQUIP,ITE CPU Electric Power at Design Inlet Conditions [W] !Hourly
203,1,EASTDATACENTER_EQUIP,ITE Fan Electric Power at Design Inlet Conditions [W] !Hourly
204,1,EASTDATACENTER_EQUIP,ITE UPS Heat Gain to Zone Rate [W] !Hourly
205,1,EASTDATACENTER_EQUIP,ITE Total Heat Gain to Zone Rate [W] !Hourly
209,1,EASTDATACENTER_EQUIP,ITE Standard Density Air Volume Flow Rate [m3/s] !Hourly
210,1,EASTDATACENTER_EQUIP,ITE Air Inlet Dry-Bulb Temperature [C] !Hourly
211,1,EASTDATACENTER_EQUIP,ITE Air Inlet Dewpoint Temperature [C] !Hourly
212,1,EASTDATACENTER_EQUIP,ITE Air Inlet Relative Humidity [%] !Hourly
213,1,EASTDATACENTER_EQUIP,ITE Air Outlet Dry-Bulb Temperature [C] !Hourly
214,1,EASTDATACENTER_EQUIP,ITE Supply Heat Index [] !Hourly
215,1,EASTDATACENTER_EQUIP,ITE Air Inlet Operating Range Exceeded Time [hr] !Hourly
216,1,EASTDATACENTER_EQUIP,ITE Air Inlet Dry-Bulb Temperature Above Operating Range Time [hr] !Hourly
217,1,EASTDATACENTER_EQUIP,ITE Air Inlet Dry-Bulb Temperature Below Operating Range Time [hr] !Hourly
218,1,EASTDATACENTER_EQUIP,ITE Air Inlet Dewpoint Temperature Above Operating Range Time [hr] !Hourly
219,1,EASTDATACENTER_EQUIP,ITE Air Inlet Dewpoint Temperature Below Operating Range Time [hr] !Hourly
220,1,EASTDATACENTER_EQUIP,ITE Air Inlet Relative Humidity Above Operating Range Time [hr] !Hourly
221,1,EASTDATACENTER_EQUIP,ITE Air Inlet Relative Humidity Below Operating Range Time [hr] !Hourly
222,1,EASTDATACENTER_EQUIP,ITE Air Inlet Dry-Bulb Temperature Difference Above Operating Range [deltaC] !Hourly
223,1,EASTDATACENTER_EQUIP,ITE Air Inlet Dry-Bulb Temperature Difference Below Operating Range [deltaC] !Hourly
224,1,EASTDATACENTER_EQUIP,ITE Air Inlet Dewpoint Temperature Difference Above Operating Range [deltaC] !Hourly
225,1,EASTDATACENTER_EQUIP,ITE Air Inlet Dewpoint Temperature Difference Below Operating Range [deltaC] !Hourly
226,1,EASTDATACENTER_EQUIP,ITE Air Inlet Relative Humidity Difference Above Operating Range [%] !Hourly
227,1,EASTDATACENTER_EQUIP,ITE Air Inlet Relative Humidity Difference Below Operating Range [%] !Hourly
228,1,EAST ZONE,Zone ITE CPU Electric Power [W] !Hourly
229,1,EAST ZONE,Zone ITE Fan Electric Power [W] !Hourly
230,1,EAST ZONE,Zone ITE UPS Electric Power [W] !Hourly
231,1,EAST ZONE,Zone ITE CPU Electric Power at Design Inlet Conditions [W] !Hourly
232,1,EAST ZONE,Zone ITE Fan Electric Power at Design Inlet Conditions [W] !Hourly
233,1,EAST ZONE,Zone ITE UPS Heat Gain to Zone Rate [W] !Hourly
234,1,EAST ZONE,Zone ITE Total Heat Gain to Zone Rate [W] !Hourly
239,1,EMS,Power Utilization Effectiveness [] !TimeStep
312,1,WEST ZONE,Zone Air Temperature [C] !TimeStep
313,1,WEST ZONE,Zone Air Relative Humidity [%] !TimeStep
314,1,WEST ZONE,Zone Thermostat Control Type [] !Hourly
315,1,WEST ZONE,Zone Thermostat Heating Setpoint Temperature [C] !Hourly
316,1,WEST ZONE,Zone Thermostat Cooling Setpoint Temperature [C] !Hourly
349,1,EAST ZONE,Zone Air Temperature [C] !TimeStep
350,1,EAST ZONE,Zone Air Relative Humidity [%] !TimeStep
351,1,EAST ZONE,Zone Thermostat Control Type [] !Hourly
352,1,EAST ZONE,Zone Thermostat Heating Setpoint Temperature [C] !Hourly
353,1,EAST ZONE,Zone Thermostat Cooling Setpoint Temperature [C] !Hourly
386,1,WEST PLENUM,Zone Thermostat Control Type [] !Hourly
387,1,WEST PLENUM,Zone Thermostat Heating Setpoint Temperature [C] !Hourly
388,1,WEST PLENUM,Zone Thermostat Cooling Setpoint Temperature [C] !Hourly
421,1,EAST PLENUM,Zone Thermostat Control Type [] !Hourly
422,1,EAST PLENUM,Zone Thermostat Heating Setpoint Temperature [C] !Hourly
423,1,EAST PLENUM,Zone Thermostat Cooling Setpoint Temperature [C] !Hourly
517,1,Whole Building,Facility Total Building Electric Demand Power [W] !Hourly
518,1,Whole Building,Facility Total HVAC Electric Demand Power [W] !Hourly
519,1,Whole Building,Facility Total Electric Demand Power [W] !Hourly
520,1,WEST ZONE,Zone Oscillating Temperatures Time [hr] !Hourly
521,1,EAST ZONE,Zone Oscillating Temperatures Time [hr] !Hourly
522,1,WEST PLENUM,Zone Oscillating Temperatures Time [hr] !Hourly
523,1,EAST PLENUM,Zone Oscillating Temperatures Time [hr] !Hourly
524,1,Facility,Facility Any Zone Oscillating Temperatures Time [hr] !Hourly
525,1,WEST ZONE,Zone Heating Setpoint Not Met Time [hr] !Hourly
526,1,WEST ZONE,Zone Heating Setpoint Not Met While Occupied Time [hr] !Hourly
527,1,WEST ZONE,Zone Cooling Setpoint Not Met Time [hr] !Hourly
528,1,WEST ZONE,Zone Cooling Setpoint Not Met While Occupied Time [hr] !Hourly
529,1,EAST ZONE,Zone Heating Setpoint Not Met Time [hr] !Hourly
530,1,EAST ZONE,Zone Heating Setpoint Not Met While Occupied Time [hr] !Hourly
531,1,EAST ZONE,Zone Cooling Setpoint Not Met Time [hr] !Hourly
532,1,EAST ZONE,Zone Cooling Setpoint Not Met While Occupied Time [hr] !Hourly
533,1,WEST PLENUM,Zone Heating Setpoint Not Met Time [hr] !Hourly
534,1,WEST PLENUM,Zone Heating Setpoint Not Met While Occupied Time [hr] !Hourly
535,1,WEST PLENUM,Zone Cooling Setpoint Not Met Time [hr] !Hourly
536,1,WEST PLENUM,Zone Cooling Setpoint Not Met While Occupied Time [hr] !Hourly
537,1,EAST PLENUM,Zone Heating Setpoint Not Met Time [hr] !Hourly
538,1,EAST PLENUM,Zone Heating Setpoint Not Met While Occupied Time [hr] !Hourly
539,1,EAST PLENUM,Zone Cooling Setpoint Not Met Time [hr] !Hourly
540,1,EAST PLENUM,Zone Cooling Setpoint Not Met While Occupied Time [hr] !Hourly
541,1,WEST ZONE VAV SYSTEM,Zone Air Terminal VAV Damper Position [] !Hourly
542,1,WEST ZONE VAV SYSTEM,Zone Air Terminal Minimum Air Flow Fraction [] !Hourly
543,1,WEST ZONE VAV SYSTEM,Zone Air Terminal Outdoor Air Volume Flow Rate [m3/s] !Hourly
544,1,EAST ZONE VAV SYSTEM,Zone Air Terminal VAV Damper Position [] !Hourly
545,1,EAST ZONE VAV SYSTEM,Zone Air Terminal Minimum Air Flow Fraction [] !Hourly
546,1,EAST ZONE VAV SYSTEM,Zone Air Terminal Outdoor Air Volume Flow Rate [m3/s] !Hourly
599,1,WEST ZONE CW COOLING COIL,Cooling Coil Total Cooling Rate [W] !TimeStep
600,1,WEST ZONE CW COOLING COIL,Cooling Coil Sensible Cooling Rate [W] !TimeStep
603,1,EAST ZONE CW COOLING COIL,Cooling Coil Total Cooling Rate [W] !TimeStep
604,1,EAST ZONE CW COOLING COIL,Cooling Coil Sensible Cooling Rate [W] !TimeStep
605,1,WEST ZONE SUPPLY FAN,Fan Electric Power [W] !Hourly
606,1,WEST ZONE SUPPLY FAN,Fan Rise in Air Temperature [deltaC] !Hourly
607,1,WEST ZONE SUPPLY FAN,Fan Heat Gain to Air [W] !Hourly
608,1,WEST ZONE SUPPLY FAN,Fan Electric Energy [J] !Hourly
639,1,WEST ZONE SUPPLY FAN,Fan Air Mass Flow Rate [kg/s] !Hourly
640,1,EAST ZONE SUPPLY FAN,Fan Electric Power [W] !Hourly
641,1,EAST ZONE SUPPLY FAN,Fan Rise in Air Temperature [deltaC] !Hourly
642,1,EAST ZONE SUPPLY FAN,Fan Heat Gain to Air [W] !Hourly
643,1,EAST ZONE SUPPLY FAN,Fan Electric Energy [J] !Hourly
644,1,EAST ZONE SUPPLY FAN,Fan Air Mass Flow Rate [kg/s] !Hourly
645,1,WEST DATA CENTER IEC,Evaporative Cooler Total Stage Effectiveness [] !TimeStep
646,1,WEST DATA CENTER IEC,Evaporative Cooler Operating Mode Status [] !TimeStep
647,1,EAST DATA CENTER IEC,Evaporative Cooler Total Stage Effectiveness [] !TimeStep
648,1,EAST DATA CENTER IEC,Evaporative Cooler Operating Mode Status [] !TimeStep
649,1,WEST DATA CENTER DEC,Evaporative Cooler Stage Effectiveness [] !TimeStep
650,1,EAST DATA CENTER DEC,Evaporative Cooler Stage Effectiveness [] !TimeStep
662,1,WEST DATA CENTER IEC,Evaporative Cooler Electric Power [W] !TimeStep
663,1,WEST DATA CENTER IEC,Evaporative Cooler Water Volume [m3] !TimeStep
726,1,EAST DATA CENTER IEC,Evaporative Cooler Electric Power [W] !TimeStep
727,1,EAST DATA CENTER IEC,Evaporative Cooler Water Volume [m3] !TimeStep
730,1,WEST DATA CENTER DEC,Evaporative Cooler Electric Power [W] !TimeStep
731,1,WEST DATA CENTER DEC,Evaporative Cooler Water Volume [m3] !TimeStep
734,1,EAST DATA CENTER DEC,Evaporative Cooler Electric Power [W] !TimeStep
735,1,EAST DATA CENTER DEC,Evaporative Cooler Water Volume [m3] !TimeStep
737,1,WEST DX COOLING COIL,Cooling Coil Total Cooling Rate [W] !TimeStep
739,1,WEST DX COOLING COIL,Cooling Coil Sensible Cooling Rate [W] !TimeStep
741,1,EAST DX COOLING COIL,Cooling Coil Total Cooling Rate [W] !TimeStep
743,1,EAST DX COOLING COIL,Cooling Coil Sensible Cooling Rate [W] !TimeStep
766,1,CHILLER,Chiller Evaporator Cooling Rate [W] !Hourly
788,1,CHILLER,Chiller Evaporator Inlet Temperature [C] !Hourly
789,1,CHILLER,Chiller Evaporator Outlet Temperature [C] !Hourly
790,1,CHILLER,Chiller Condenser Heat Transfer Rate [W] !Hourly
802,1,CHILLER,Chiller Condenser Inlet Temperature [C] !Hourly
803,1,CHILLER,Chiller Condenser Outlet Temperature [C] !Hourly
892,1,WEST ZONE INLET NODE,System Node Temperature [C] !TimeStep
893,1,WEST ZONE INLET NODE,System Node Mass Flow Rate [kg/s] !TimeStep
894,1,WEST OUTSIDE AIR INLET NODE,System Node Temperature [C] !TimeStep
895,1,WEST OUTSIDE AIR INLET NODE,System Node Mass Flow Rate [kg/s] !TimeStep
896,1,WEST IEC SECONDARY AIR INLET NODE,System Node Temperature [C] !TimeStep
897,1,WEST IEC SECONDARY AIR INLET NODE,System Node Mass Flow Rate [kg/s] !TimeStep
898,1,WEST ZONE DEC OUTLET NODE,System Node Temperature [C] !TimeStep
899,1,WEST ZONE DEC OUTLET NODE,System Node Setpoint Temperature [C] !TimeStep
900,1,WEST ZONE IEC OUTLET NODE,System Node Temperature [C] !TimeStep
901,1,WEST ZONE IEC OUTLET NODE,System Node Setpoint Temperature [C] !TimeStep
902,1,WEST ZONE CCOIL AIR OUTLET NODE,System Node Temperature [C] !TimeStep
903,1,WEST ZONE CCOIL AIR OUTLET NODE,System Node Setpoint Temperature [C] !TimeStep
904,1,WEST AIR LOOP OUTLET NODE,System Node Temperature [C] !TimeStep
905,1,WEST AIR LOOP OUTLET NODE,System Node Setpoint Temperature [C] !TimeStep
906,1,EAST ZONE INLET NODE,System Node Temperature [C] !TimeStep
907,1,EAST ZONE INLET NODE,System Node Mass Flow Rate [kg/s] !TimeStep
908,1,EAST OUTSIDE AIR INLET NODE,System Node Temperature [C] !TimeStep
909,1,EAST OUTSIDE AIR INLET NODE,System Node Mass Flow Rate [kg/s] !TimeStep
910,1,EAST IEC SECONDARY AIR INLET NODE,System Node Temperature [C] !TimeStep
911,1,EAST IEC SECONDARY AIR INLET NODE,System Node Mass Flow Rate [kg/s] !TimeStep
912,1,EAST ZONE DEC OUTLET NODE,System Node Temperature [C] !TimeStep
913,1,EAST ZONE DEC OUTLET NODE,System Node Setpoint Temperature [C] !TimeStep
914,1,EAST ZONE IEC OUTLET NODE,System Node Temperature [C] !TimeStep
915,1,EAST ZONE IEC OUTLET NODE,System Node Setpoint Temperature [C] !TimeStep
916,1,EAST ZONE CCOIL AIR OUTLET NODE,System Node Temperature [C] !TimeStep
917,1,EAST ZONE CCOIL AIR OUTLET NODE,System Node Setpoint Temperature [C] !TimeStep
918,1,EAST AIR LOOP OUTLET NODE,System Node Temperature [C] !TimeStep
919,1,EAST AIR LOOP OUTLET NODE,System Node Setpoint Temperature [C] !TimeStep
920,1,WEST ZONE RETURN AIR NODE,System Node Temperature [C] !TimeStep
921,1,WEST ZONE RETURN AIR NODE,System Node Mass Flow Rate [kg/s] !TimeStep
922,1,WEST ZONE MIXED AIR NODE,System Node Temperature [C] !TimeStep
923,1,WEST ZONE MIXED AIR NODE,System Node Mass Flow Rate [kg/s] !TimeStep
924,1,WEST ZONE SUPPLY FAN OUTLET NODE,System Node Temperature [C] !TimeStep
925,1,EAST ZONE SUPPLY FAN OUTLET NODE,System Node Temperature [C] !TimeStep
926,1,WEST IEC SECONDARY AIR OUTLET NODE,System Node Temperature [C] !TimeStep
927,1,WEST IEC SECONDARY AIR OUTLET NODE,System Node Mass Flow Rate [kg/s] !TimeStep
End of Data Dictionary
1,WHOLEYEARDAY,  37.62,-122.40,  -8.00,   2.00
2,1, 1, 1, 0, 1, 0.00,15.00,Tuesday
6,6.825
239,1.0300298866314462
312,22.609923034909508
313,29.469339282584337
349,23.04832130641232
350,28.676474565959624
599,0.0
600,0.0
603,0.0
604,0.0
645,0.0
647,0.0
649,0.0
650,0.0
662,0.0
663,0.0
726,0.0
727,0.0
730,0.0
731,0.0
734,0.0
735,0.0
737,0.0
739,0.0
741,0.0
743,0.0
892,12.863129653332962
893,1.7830830000000003
894,6.825
895,1.4625994990175629
896,6.825
897,0.0
898,10.13937334813371
899,10.139375
900,10.13937334813371
901,10.139375
902,10.13937334813371
903,10.139375
904,10.13937334813371
905,10.139375
906,13.03582605864938
907,1.786545
908,6.825
909,1.4668099572058058
910,6.825
911,0.0
912,10.22276226763444
913,10.222764
914,10.22276226763444
915,10.222764
916,10.22276226763444
917,10.222764
918,10.22276226763444
919,10.222764
920,22.71968346118979
921,1.7830830000000003
922,9.680773863553736
923,1.7830830000000003
924,10.13937334813371
925,10.22276226763444
926,6.825
927,0.0
646,0.0
648,0.0
2,1, 1, 1, 0, 1,15.00,30.00,Tuesday
6,6.95
239,1.0468208230481329
312,23.28431592280335
313,28.9343029084987
349,24.319351825119158
350,27.143381294158936
599,0.0
600,0.0
603,0.0
604,0.0
645,0.0
647,0.0
649,0.0
650,0.0
662,0.0
663,0.0
726,0.0
727,0.0
730,0.0
731,0.0
734,0.0
735,0.0
737,0.0
739,0.0
741,0.0
743,0.0
892,13.08225602788274
893,1.7830830000000003
894,6.95
895,1.4801502863620284
896,6.95
897,0.0
898,10.139370959078733
899,10.139375
900,10.139370959078733
901,10.139375
902,10.139370959078733
903,10.139375
904,10.139370959078733
905,10.139375
906,13.31750009973494
907,1.786545
908,6.95
909,1.4940690058487969
910,6.95
911,0.0
912,10.222759621602725
913,10.222764
914,10.222759621602725
915,10.222764
916,10.222759621602725
917,10.222764
918,10.222759621602725
919,10.222764
920,23.03672015671385
921,1.7830830000000003
922,9.680902573638152
923,1.7830830000000003
924,10.139370959078733
925,10.222759621602725
926,6.95
927,0.0
646,0.0
648,0.0
2,1, 1, 1, 0, 1,30.00,45.00,Tuesday
6,7.075
239,1.0387218091964677
312,23.482082090170978
313,29.048191112436024
349,24.67799811492066
350,26.97182283218213
599,0.0
600,0.0
603,0.0
604,0.0
645,0.0
647,0.0
649,0.0
650,0.0
662,0.0
663,0.0
726,0.0
727,0.0
730,0.0
731,0.0
734,0.0
735,0.0
737,0.0
739,0.0
741,0.0
743,0.0
892,13.093413061462022
893,1.783083
894,7.075
895,1.497772415412924
896,7.075
897,0.0
898,10.13937339819178
899,10.139375
900,10.13937339819178
901,10.139375
902,10.13937339819178
903,10.139375
904,10.13937339819178
905,10.139375
906,13.335424551927343
907,1.786545
908,7.075
909,1.5149924623660934
910,7.075
911,0.0
912,10.222762342917317
913,10.222763999999998
914,10.222762342917317
915,10.222763999999998
916,10.222762342917317
917,10.222763999999998
918,10.222762342917317
919,10.222763999999998
920,23.37075933348649
921,1.783083
922,9.681037244002031
923,1.783083
924,10.13937339819178
925,10.222762342917317
926,7.075
927,0.0
646,0.0
648,0.0
2,1, 1, 1, 0, 1,45.00,60.00,Tuesday
6,7.2
239,1.0386216640699482
312,23.608595828490654
313,29.372159155014793
349,24.93263049023671
350,27.052985054472413
599,0.0
600,0.0
603,0.0
604,0.0
645,0.0
647,0.0
649,0.0
650,0.0
662,0.0
663,0.0
726,0.0
727,0.0
730,0.0
731,0.0
734,0.0
735,0.0
737,0.0
739,0.0
741,0.0
743,0.0
892,13.106520065286683
893,1.7830830000000003
894,7.2
895,1.511640191412849
896,7.2
897,0.0
898,10.139375997272774
899,10.139375
900,10.139375997272774
901,10.139375
902,10.139375997272774
903,10.139375
904,10.139375997272774
905,10.139375
906,13.356407398699578
907,1.7865450000000003
908,7.2
909,1.5298098309341786
910,7.2
911,0.0
912,10.222764939049928
913,10.222764
914,10.222764939049928
915,10.222764
916,10.222764939049928
917,10.222764
918,10.222764939049928
919,10.222764
920,23.509682752072636
921,1.7830830000000003
922,9.681174443640348
923,1.7830830000000003
924,10.139375997272774
925,10.222764939049928
926,7.2
927,0.0
646,0.0
648,0.0
2,1, 1, 1, 0, 1, 0.00,60.00,Tuesday
133,11935.141381797337
134,8217.726316601511
135,2015.2867698398843
136,13936.849545599995
137,10219.334400000002
138,2015.2867698398843
139,22168.154468238732
173,3.0159950643726889
174,13.92274349504683
175,4.317822254950684
176,0.5230365047122033
177,21.863824971036214
178,0.11479478074101511
179,1.0
180,0.0
181,0.0
182,0.0
183,0.0
184,0.0
185,1.0
186,0.0
187,0.0
188,0.0
189,0.0
190,0.0
191,-19.476963495287799
192,11935.141381797337
193,8217.726316601511
194,2015.2867698398843
195,13936.849545599995
196,10219.334400000002
197,2015.2867698398843
198,22168.154468238732
199,13826.124495012868
200,9679.376022211763
201,2350.5500517224627
202,15546.354479999996
203,11399.520000000002
204,2350.5500517224627
205,25856.050568947092
209,3.5490504648981795
210,14.170071031250849
211,4.315014694769026
212,0.5146334523154443
213,22.04845677353547
214,0.12160729732013258
215,1.0
216,0.0
217,0.0
218,0.0
219,0.0
220,0.0
221,1.0
222,0.0
223,0.0
224,0.0
225,0.0
226,0.0
227,-19.485366547684558
228,13826.124495012868
229,9679.376022211763
230,2350.5500517224627
231,15546.354479999996
232,11399.520000000002
233,2350.5500517224627
234,25856.050568947092
315,20.0
316,23.0
352,20.0
353,23.0
387,0.0
388,0.0
422,0.0
423,0.0
525,0.0
526,0.0
527,0.75
528,0.0
529,0.0
530,0.0
531,0.75
532,0.0
533,0.0
534,0.0
535,0.0
536,0.0
537,0.0
538,0.0
539,0.0
540,0.0
314,4.0
351,4.0
386,0.0
421,0.0
517,48052.60503718582
518,1938.4409591185783
519,49991.0459963044
520,0.0
521,0.08333333333333333
522,0.0
523,0.0
524,0.08333333333333333
541,0.28583745310899996
542,0.4
543,1.235890313885331
544,0.25562180187495567
545,0.4
546,1.2470028208120814
605,921.5461861575103
606,0.45840139446068359
607,829.3915675417593
608,3317566.270167037
639,1.783083
640,1016.894772961068
641,0.5048494081236314
642,915.2052956649612
643,3660821.182659845
644,1.786545
766,0.0
788,10.204275065416635
789,10.204275065416635
790,0.0
802,9.932642824348998
803,9.932642824348998
2,1, 1, 1, 0, 2, 0.00,15.00,Tuesday
6,7.2
239,1.0383409709324887
312,23.749588215285738
313,30.004310110775813
349,25.231863070576677
350,27.378648739180368
599,0.0
600,0.0
603,0.0
604,0.0
645,0.0
647,0.0
649,0.0
650,0.0
662,0.0
663,0.0
726,0.0
727,0.0
730,0.0
731,0.0
734,0.0
735,0.0
737,0.0
739,0.0
741,0.0
743,0.0
892,13.114258027886738
893,1.7830830000000003
894,7.2
895,1.5145000285311224
896,7.2
897,0.0
898,10.13935857861106
899,10.139375
900,10.13935857861106
901,10.139375
902,10.13935857861106
903,10.139375
904,10.13935857861106
905,10.139375
906,13.37077350214702
907,1.786545
908,7.2
909,1.5347008068992554
910,7.2
911,0.0
912,10.222746955719514
913,10.222764
914,10.222746955719514
915,10.222764
916,10.222746955719514
917,10.222764
918,10.222746955719514
919,10.222764
920,23.679908243007014
921,1.7830830000000003
922,9.681175622288376
923,1.7830830000000003
924,10.13935857861106
925,10.222746955719514
926,7.2
927,0.0
646,0.0
648,0.0
2,1, 1, 1, 0, 2,15.00,30.00,Tuesday
6,7.2
239,1.0382205612932563
312,23.850455844199425
313,30.449546422272328
349,25.451717567408353
350,27.617869722230098
599,0.0
600,0.0
603,0.0
604,0.0
645,0.0
647,0.0
649,0.0
650,0.0
662,0.0
663,0.0
726,0.0
727,0.0
730,0.0
731,0.0
734,0.0
735,0.0
737,0.0
739,0.0
741,0.0
743,0.0
892,13.122160538700385
893,1.7830830000000003
894,7.2
895,1.5156719133693336
896,7.2
897,0.0
898,10.139360472610301
899,10.139375
900,10.139360472610301
901,10.139375
902,10.139360472610301
903,10.139375
904,10.139360472610301
905,10.139375
906,13.386612969164182
907,1.786545
908,7.2
909,1.5369690065018247
910,7.2
911,0.0
912,10.222748602913985
913,10.222764
914,10.222748602913985
915,10.222764
916,10.222748602913985
917,10.222764
918,10.222748602913985
919,10.222764
920,23.749588215285738
921,1.7830830000000003
922,9.681191805040167
923,1.7830830000000003
924,10.139360472610301
925,10.222748602913985
926,7.2
927,0.0
646,0.0
648,0.0
2,1, 1, 1, 0, 2,30.00,45.00,Tuesday
6,7.2
239,1.0381139996854932
312,23.916019269500369
313,30.58092591683093
349,25.59719326271779
350,27.637727488583559
599,0.0
600,0.0
603,0.0
604,0.0
645,0.0
647,0.0
649,0.0
650,0.0
662,0.0
663,0.0
726,0.0
727,0.0
730,0.0
731,0.0
734,0.0
735,0.0
737,0.0
739,0.0
741,0.0
743,0.0
892,13.13169743524692
893,1.7830830000000003
894,7.2
895,1.517337806311364
896,7.2
897,0.0
898,10.13935927764147
899,10.139375
900,10.13935927764147
901,10.139375
902,10.13935927764147
903,10.139375
904,10.13935927764147
905,10.139375
906,13.405693609452939
907,1.786545
908,7.2
909,1.5400203376989946
910,7.2
911,0.0
912,10.222747032207624
913,10.222764
914,10.222747032207624
915,10.222764
916,10.222747032207624
917,10.222764
918,10.222747032207624
919,10.222764
920,23.850455844199425
921,1.7830830000000003
922,9.68120628952315
923,1.7830830000000003
924,10.13935927764147
925,10.222747032207624
926,7.2
927,0.0
646,0.0
648,0.0
2,1, 1, 1, 0, 2,45.00,60.00,Tuesday
6,7.2
239,1.0379382816761829
312,23.96922406023895
313,30.553871874359108
349,25.715068551157434
350,27.523042368232134
599,0.0
600,0.0
603,0.0
604,0.0
645,0.0
647,0.0
649,0.0
650,0.0
662,0.0
663,0.0
726,0.0
727,0.0
730,0.0
731,0.0
734,0.0
735,0.0
737,0.0
739,0.0
741,0.0
743,0.0
892,13.139798690600813
893,1.7830830000000003
894,7.2
895,1.5183974906109175
896,7.2
897,0.0
898,10.139368028078185
899,10.139375
900,10.139368028078185
901,10.139375
902,10.139368028078185
903,10.139375
904,10.139368028078185
905,10.139375
906,13.422354291661117
907,1.786545
908,7.2
909,1.5419882824283513
910,7.2
911,0.0
912,10.222755985660733
913,10.222764
914,10.222755985660733
915,10.222764
916,10.222755985660733
917,10.222764
918,10.222755985660733
919,10.222764
920,23.916019269500369
921,1.7830830000000003
922,9.681222003094418
923,1.7830830000000003
924,10.139368028078185
925,10.222755985660733
926,7.2
927,0.0
646,0.0
648,0.0
2,1, 1, 1, 0, 2, 0.00,60.00,Tuesday
133,12427.359487456619
134,8709.919812585998
135,2113.727930004261
136,13936.849545599995
137,10219.334400000002
138,2113.727930004261
139,23251.007230046882
173,3.1920807688383925
174,14.187639829970039
175,5.365887965881519
176,0.5530812922917796
177,22.041478537773636
178,0.1196987907880667
179,1.0
180,0.0
181,0.0
182,0.0
183,0.0
184,0.0
185,1.0
186,0.0
187,0.0
188,0.0
189,0.0
190,0.0
191,-19.44691870770822
192,12427.359487456619
193,8709.919812585998
194,2113.727930004261
195,13936.849545599995
196,10219.334400000002
197,2113.727930004261
198,23251.007230046882
199,14670.479160945571
200,10523.688472521953
201,2519.416763346752
202,15546.354479999996
203,11399.520000000002
204,2519.416763346752
205,27713.584396814273
209,3.8515864173963019
210,14.577431909314667
211,5.361953232652688
212,0.5391541448837158
213,22.335798576042874
214,0.13352970444508828
215,1.0
216,0.0
217,0.0
218,0.0
219,0.0
220,0.0
221,1.0
222,0.0
223,0.0
224,0.0
225,0.0
226,0.0
227,-19.460845855116284
228,14670.479160945571
229,10523.688472521953
230,2519.416763346752
231,15546.354479999996
232,11399.520000000002
233,2519.416763346752
234,27713.584396814273
315,20.0
316,23.0
352,20.0
353,23.0
387,0.0
388,0.0
422,0.0
423,0.0
525,0.0
526,0.0
527,1.0
528,0.0
529,0.0
530,0.0
531,1.0
532,0.0
533,0.0
534,0.0
535,0.0
536,0.0
537,0.0
538,0.0
539,0.0
540,0.0
314,4.0
351,4.0
386,0.0
421,0.0
517,50992.991626861156
518,1938.4409591185783
519,52931.43258597973
520,0.0
521,0.0
522,0.0
523,0.0
524,0.0
541,0.28583745310899996
542,0.4
543,1.2595079749849132
544,0.25562180187495567
545,0.4
546,1.2777325398114639
605,921.5461861575103
606,0.45816265924872648
607,829.3915675417593
608,3317566.270167037
639,1.783083
640,1016.894772961068
641,0.5045872319946239
642,915.2052956649612
643,3660821.182659845
644,1.786545
766,0.0
788,10.204275065416635
789,10.204275065416635
790,0.0
802,9.932642824348998
803,9.932642824348998
2,1, 1, 1, 0, 3, 0.00,15.00,Tuesday
6,7.075
239,1.0377855487528638
312,24.01409282959454
313,30.522641504902866
349,25.819088972264156
350,27.40200075631931
599,0.0
600,0.0
603,0.08879343637745428
604,0.08879343637745428
645,0.0
647,0.0
649,0.0
650,0.0
662,0.0
663,0.0
726,0.0
727,0.0
730,0.0
731,0.0
734,0.0
735,0.0
737,0.0
739,0.0
741,0.0
743,0.0
892,13.147035826819053
893,1.7830830000000003
894,7.075
895,1.5080290479501469
896,7.075
897,0.0
898,10.139419699141998
899,10.139375
900,10.139419699141998
901,10.139375
902,10.139419699141998
903,10.139375
904,10.139419699141998
905,10.139375
906,13.43753432438641
907,1.786545
908,7.075
909,1.5332257023413674
910,7.075
911,0.0
912,10.222813750821136
913,10.222764
914,10.222813750821136
915,10.222764
916,10.222813750821136
917,10.222764
918,10.222764792589859
919,10.222764
920,23.96922406023895
921,1.7830830000000003
922,9.681228976990763
923,1.7830830000000003
924,10.139419699141998
925,10.222813750821136
926,7.075
927,0.0
646,0.0
648,0.0
2,1, 1, 1, 0, 3,15.00,30.00,Tuesday
6,6.95
239,1.0376580884270788
312,24.05023518977033
313,30.388229715907863
349,25.909150975798548
350,27.201344758220495
599,0.0
600,0.0
603,0.09206086756416975
604,0.09206086756416975
645,0.0
647,0.0
649,0.0
650,0.0
662,0.0
663,0.0
726,0.0
727,0.0
730,0.0
731,0.0
734,0.0
735,0.0
737,0.0
739,0.0
741,0.0
743,0.0
892,13.153647348678142
893,1.7830830000000003
894,6.95
895,1.497742800775968
896,6.95
897,0.0
898,10.139419324096162
899,10.139375
900,10.139419324096162
901,10.139375
902,10.139419324096162
903,10.139375
904,10.139419324096162
905,10.139375
906,13.451512726809993
907,1.786545
908,6.95
909,1.5245005425502585
910,6.95
911,0.0
912,10.222813686405614
913,10.222764
914,10.222813686405614
915,10.222764
916,10.222813686405614
917,10.222764
918,10.222762921607182
919,10.222764
920,24.01409282959454
921,1.7830830000000003
922,9.681184293953864
923,1.7830830000000003
924,10.139419324096162
925,10.222813686405614
926,6.95
927,0.0
646,0.0
648,0.0
2,1, 1, 1, 0, 3,30.00,45.00,Tuesday
6,6.825
239,1.0375452544185898
312,24.0795322886333
313,30.127454665750976
349,25.986544367633859
350,26.899551109281107
599,0.0
600,0.0
603,0.0920605737198215
604,0.0920605737198215
645,0.0
647,0.0
649,0.0
650,0.0
662,0.0
663,0.0
726,0.0
727,0.0
730,0.0
731,0.0
734,0.0
735,0.0
737,0.0
739,0.0
741,0.0
743,0.0
892,13.159620820922651
893,1.7830830000000003
894,6.825
895,1.4875017677082152
896,6.825
897,0.0
898,10.139421259672999
899,10.139375
900,10.139421259672999
901,10.139375
902,10.139421259672999
903,10.139375
904,10.139421259672999
905,10.139375
906,13.464236890942495
907,1.786545
908,6.825
909,1.5157798111267203
910,6.825
911,0.0
912,10.222815514210018
913,10.222764
914,10.222815514210018
915,10.222764
916,10.222815514210018
917,10.222764
918,10.222764744395202
919,10.222764
920,24.05023518977033
921,1.7830830000000003
922,9.681140005639137
923,1.7830830000000003
924,10.139421259672999
925,10.222815514210018
926,6.825
927,0.0
646,0.0
648,0.0
2,1, 1, 1, 0, 3,45.00,60.00,Tuesday
6,6.7
239,1.037445505745389
312,24.10398844831327
313,29.80326552941351
349,26.053739982746128
350,26.54676416764804
599,0.0
600,0.0
603,0.09206030603378511
604,0.09206030603378511
645,0.0
647,0.0
649,0.0
650,0.0
662,0.0
663,0.0
726,0.0
727,0.0
730,0.0
731,0.0
734,0.0
735,0.0
737,0.0
739,0.0
741,0.0
743,0.0
892,13.164839670574708
893,1.7830830000000003
894,6.7
895,1.4773196861606042
896,6.7
897,0.0
898,10.139424070597292
899,10.139375