Program Version,EnergyPlus, Version 8.8.0-Unknown, YMD=2019.06.04 20:29
1,5,Environment Title[],Latitude[deg],Longitude[deg],Time Zone[],Elevation[m]
2,6,Day of Simulation[],Month[],Day of Month[],DST Indicator[1=yes 0=no],Hour[],StartMinute[],EndMinute[],DayType
3,3,Cumulative Day of Simulation[],Month[],Day of Month[],DST Indicator[1=yes 0=no],DayType  ! When Daily Report Variables Requested
4,2,Cumulative Days of Simulation[],Month[]  ! When Monthly Report Variables Requested
5,1,Cumulative Days of Simulation[] ! When Run Period Report Variables Requested
6,1,Environment,Site Outdoor Air Drybulb Temperature [C] !TimeStep
133,1,WESTDATACENTER_EQUIP,ITE CPU Electric Power [W] !Hourly
134,1,WESTDATACENTER_EQUIP,ITE Fan Electric Power [W] !Hourly
135,1,WESTDATACENTER_EQUIP,ITE UPS Electric Power [W] !Hourly
136,1,WESTDATACENTER_EQUIP,ITE CPU Electric Power at Design Inlet Conditions [W] !Hourly
137,1,WESTDATACENTER_EQUIP,ITE Fan Electric Power at Design Inlet Conditions [W] !Hourly
138,1,WESTDATACENTER_EQUIP,ITE UPS Heat Gain to Zone Rate [W] !Hourly
139,1,WESTDATACENTER_EQUIP,ITE Total Heat Gain to Zone Rate [W] !Hourly
173,1,WESTDATACENTER_EQUIP,ITE Standard Density Air Volume Flow Rate [m3/s] !Hourly
174,1,WESTDATACENTER_EQUIP,ITE Air Inlet Dry-Bulb Temperature [C] !Hourly
175,1,WESTDATACENTER_EQUIP,ITE Air Inlet Dewpoint Temperature [C] !Hourly
176,1,WESTDATACENTER_EQUIP,ITE Air Inlet Relative Humidity [%] !Hourly
177,1,WESTDATACENTER_EQUIP,ITE Air Outlet Dry-Bulb Temperature [C] !Hourly
178,1,WESTDATACENTER_EQUIP,ITE Supply Heat Index [] !Hourly
179,1,WESTDATACENTER_EQUIP,ITE Air Inlet Operating Range Exceeded Time [hr] !Hourly
180,1,WESTDATACENTER_EQUIP,ITE Air Inlet Dry-Bulb Temperature Above Operating Range Time [hr] !Hourly
181,1,WESTDATACENTER_EQUIP,ITE Air Inlet Dry-Bulb Temperature Below Operating Range Time [hr] !Hourly
182,1,WESTDATACENTER_EQUIP,ITE Air Inlet Dewpoint Temperature Above Operating Range Time [hr] !Hourly
183,1,WESTDATACENTER_EQUIP,ITE Air Inlet Dewpoint Temperature Below Operating Range Time [hr] !Hourly
184,1,WESTDATACENTER_EQUIP,ITE Air Inlet Relative Humidity Above Operating Range Time [hr] !Hourly
185,1,WESTDATACENTER_EQUIP,ITE Air Inlet Relative Humidity Below Operating Range Time [hr] !Hourly
186,1,WESTDATACENTER_EQUIP,ITE Air Inlet Dry-Bulb Temperature Difference Above Operating Range [deltaC] !Hourly
187,1,WESTDATACENTER_EQUIP,ITE Air Inlet Dry-Bulb Temperature Difference Below Operating Range [deltaC] !Hourly
188,1,WESTDATACENTER_EQUIP,ITE Air Inlet Dewpoint Temperature Difference Above Operating Range [deltaC] !Hourly
189,1,WESTDATACENTER_EQUIP,ITE Air Inlet Dewpoint Temperature Difference Below Operating Range [deltaC] !Hourly
190,1,WESTDATACENTER_EQUIP,ITE Air Inlet Relative Humidity Difference Above Operating Range [%] !Hourly
191,1,WESTDATACENTER_EQUIP,ITE Air Inlet Relative Humidity Difference Below Operating Range [%] !Hourly
192,1,WEST ZONE,Zone ITE CPU Electric Power [W] !Hourly
193,1,WEST ZONE,Zone ITE Fan Electric Power [W] !Hourly
194,1,WEST ZONE,Zone ITE UPS Electric Power [W] !Hourly
195,1,WEST ZONE,Zone ITE CPU Electric Power at Design Inlet Conditions [W] !Hourly
196,1,WEST ZONE,Zone ITE Fan Electric Power at Design Inlet Conditions [W] !Hourly
197,1,WEST ZONE,Zone ITE UPS Heat Gain to Zone Rate [W] !Hourly
198,1,WEST ZONE,Zone ITE Total Heat Gain to Zone Rate [W] !Hourly
199,1,EASTDATACENTER_EQUIP,ITE CPU Electric Power [W] !Hourly
200,1,EASTDATACENTER_EQUIP,ITE Fan Electric Power [W] !Hourly
201,1,EASTDATACENTER_EQUIP,ITE UPS Electric Power [W] !Hourly
202,1,EASTDATACENTER_EQUIP,ITE CPU Electric Power at Design Inlet Conditions [W] !Hourly
203,1,EASTDATACENTER_EQUIP,ITE Fan Electric Power at Design Inlet Conditions [W] !Hourly
204,1,EASTDATACENTER_EQUIP,ITE UPS Heat Gain to Zone Rate [W] !Hourly
205,1,EASTDATACENTER_EQUIP,ITE Total Heat Gain to Zone Rate [W] !Hourly
209,1,EASTDATACENTER_EQUIP,ITE Standard Density Air Volume Flow Rate [m3/s] !Hourly
210,1,EASTDATACENTER_EQUIP,ITE Air Inlet Dry-Bulb Temperature [C] !Hourly
211,1,EASTDATACENTER_EQUIP,ITE Air Inlet Dewpoint Temperature [C] !Hourly
212,1,EASTDATACENTER_EQUIP,ITE Air Inlet Relative Humidity [%] !Hourly
213,1,EASTDATACENTER_EQUIP,ITE Air Outlet Dry-Bulb Temperature [C] !Hourly
214,1,EASTDATACENTER_EQUIP,ITE Supply Heat Index [] !Hourly
215,1,EASTDATACENTER_EQUIP,ITE Air Inlet Operating Range Exceeded Time [hr] !Hourly
216,1,EASTDATACENTER_EQUIP,ITE Air Inlet Dry-Bulb Temperature Above Operating Range Time [hr] !Hourly
217,1,EASTDATACENTER_EQUIP,ITE Air Inlet Dry-Bulb Temperature Below Operating Range Time [hr] !Hourly
218,1,EASTDATACENTER_EQUIP,ITE Air Inlet Dewpoint Temperature Above Operating Range Time [hr] !Hourly
219,1,EASTDATACENTER_EQUIP,ITE Air Inlet Dewpoint Temperature Below Operating Range Time [hr] !Hourly
220,1,EASTDATACENTER_EQUIP,ITE Air Inlet Relative Humidity Above Operating Range Time [hr] !Hourly
221,1,EASTDATACENTER_EQUIP,ITE Air Inlet Relative Humidity Below Operating Range Time [hr] !Hourly
222,1,EASTDATACENTER_EQUIP,ITE Air Inlet Dry-Bulb Temperature Difference Above Operating Range [deltaC] !Hourly
223,1,EASTDATACENTER_EQUIP,ITE Air Inlet Dry-Bulb Temperature Difference Below Operating Range [deltaC] !Hourly
224,1,EASTDATACENTER_EQUIP,ITE Air Inlet Dewpoint Temperature Difference Above Operating Range [deltaC] !Hourly
225,1,EASTDATACENTER_EQUIP,ITE Air Inlet Dewpoint Temperature Difference Below Operating Range [deltaC] !Hourly
226,1,EASTDATACENTER_EQUIP,ITE Air Inlet Relative Humidity Difference Above Operating Range [%] !Hourly
227,1,EASTDATACENTER_EQUIP,ITE Air Inlet Relative Humidity Difference Below Operating Range [%] !Hourly
228,1,EAST ZONE,Zone ITE CPU Electric Power [W] !Hourly
229,1,EAST ZONE,Zone ITE Fan Electric Power [W] !Hourly
230,1,EAST ZONE,Zone ITE UPS Electric Power [W] !Hourly
231,1,EAST ZONE,Zone ITE CPU Electric Power at Design Inlet Conditions [W] !Hourly
232,1,EAST ZONE,Zone ITE Fan Electric Power at Design Inlet Conditions [W] !Hourly
233,1,EAST ZONE,Zone ITE UPS Heat Gain to Zone Rate [W] !Hourly
234,1,EAST ZONE,Zone ITE Total Heat Gain to Zone Rate [W] !Hourly
239,1,EMS,Power Utilization Effectiveness [] !TimeStep
312,1,WEST ZONE,Zone Air Temperature [C] !TimeStep
313,1,WEST ZONE,Zone Air Relative Humidity [%] !TimeStep
314,1,WEST ZONE,Zone Thermostat Control Type [] !Hourly
315,1,WEST ZONE,Zone Thermostat Heating Setpoint Temperature [C] !Hourly
316,1,WEST ZONE,Zone Thermostat Cooling Setpoint Temperature [C] !Hourly
349,1,EAST ZONE,Zone Air Temperature [C] !TimeStep
350,1,EAST ZONE,Zone Air Relative Humidity [%] !TimeStep
351,1,EAST ZONE,Zone Thermostat Control Type [] !Hourly
352,1,EAST ZONE,Zone Thermostat Heating Setpoint Temperature [C] !Hourly
353,1,EAST ZONE,Zone Thermostat Cooling Setpoint Temperature [C] !Hourly
386,1,WEST PLENUM,Zone Thermostat Control Type [] !Hourly
387,1,WEST PLENUM,Zone Thermostat Heating Setpoint Temperature [C] !Hourly
388,1,WEST PLENUM,Zone Thermostat Cooling Setpoint Temperature [C] !Hourly
421,1,EAST PLENUM,Zone Thermostat Control Type [] !Hourly
422,1,EAST PLENUM,Zone Thermostat Heating Setpoint Temperature [C] !Hourly
423,1,EAST PLENUM,Zone Thermostat Cooling Setpoint Temperature [C] !Hourly
517,1,Whole Building,Facility Total Building Electric Demand Power [W] !Hourly
518,1,Whole Building,Facility Total HVAC Electric Demand Power [W] !Hourly
519,1,Whole Building,Facility Total Electric Demand Power [W] !Hourly
520,1,WEST ZONE,Zone Oscillating Temperatures Time [hr] !Hourly
521,1,EAST ZONE,Zone Oscillating Temperatures Time [hr] !Hourly
522,1,WEST PLENUM,Zone Oscillating Temperatures Time [hr] !Hourly
523,1,EAST PLENUM,Zone Oscillating Temperatures Time [hr] !Hourly
524,1,Facility,Facility Any Zone Oscillating Temperatures Time [hr] !Hourly
525,1,WEST ZONE,Zone Heating Setpoint Not Met Time [hr] !Hourly
526,1,WEST ZONE,Zone Heating Setpoint Not Met While Occupied Time [hr] !Hourly
527,1,WEST ZONE,Zone Cooling Setpoint Not Met Time [hr] !Hourly
528,1,WEST ZONE,Zone Cooling Setpoint Not Met While Occupied Time [hr] !Hourly
529,1,EAST ZONE,Zone Heating Setpoint Not Met Time [hr] !Hourly
530,1,EAST ZONE,Zone Heating Setpoint Not Met While Occupied Time [hr] !Hourly
531,1,EAST ZONE,Zone Cooling Setpoint Not Met Time [hr] !Hourly
532,1,EAST ZONE,Zone Cooling Setpoint Not Met While Occupied Time [hr] !Hourly
533,1,WEST PLENUM,Zone Heating Setpoint Not Met Time [hr] !Hourly
534,1,WEST PLENUM,Zone Heating Setpoint Not Met While Occupied Time [hr] !Hourly
535,1,WEST PLENUM,Zone Cooling Setpoint Not Met Time [hr] !Hourly
536,1,WEST PLENUM,Zone Cooling Setpoint Not Met While Occupied Time [hr] !Hourly
537,1,EAST PLENUM,Zone Heating Setpoint Not Met Time [hr] !Hourly
538,1,EAST PLENUM,Zone Heating Setpoint Not Met While Occupied Time [hr] !Hourly
539,1,EAST PLENUM,Zone Cooling Setpoint Not Met Time [hr] !Hourly
540,1,EAST PLENUM,Zone Cooling Setpoint Not Met While Occupied Time [hr] !Hourly
541,1,WEST ZONE VAV SYSTEM,Zone Air Terminal VAV Damper Position [] !Hourly
542,1,WEST ZONE VAV SYSTEM,Zone Air Terminal Minimum Air Flow Fraction [] !Hourly
543,1,WEST ZONE VAV SYSTEM,Zone Air Terminal Outdoor Air Volume Flow Rate [m3/s] !Hourly
544,1,EAST ZONE VAV SYSTEM,Zone Air Terminal VAV Damper Position [] !Hourly
545,1,EAST ZONE VAV SYSTEM,Zone Air Terminal Minimum Air Flow Fraction [] !Hourly
546,1,EAST ZONE VAV SYSTEM,Zone Air Terminal Outdoor Air Volume Flow Rate [m3/s] !Hourly
599,1,WEST ZONE CW COOLING COIL,Cooling Coil Total Cooling Rate [W] !TimeStep
600,1,WEST ZONE CW COOLING COIL,Cooling Coil Sensible Cooling Rate [W] !TimeStep
603,1,EAST ZONE CW COOLING COIL,Cooling Coil Total Cooling Rate [W] !TimeStep
604,1,EAST ZONE CW COOLING COIL,Cooling Coil Sensible Cooling Rate [W] !TimeStep
605,1,WEST ZONE SUPPLY FAN,Fan Electric Power [W] !Hourly
606,1,WEST ZONE SUPPLY FAN,Fan Rise in Air Temperature [deltaC] !Hourly
607,1,WEST ZONE SUPPLY FAN,Fan Heat Gain to Air [W] !Hourly
608,1,WEST ZONE SUPPLY FAN,Fan Electric Energy [J] !Hourly
639,1,WEST ZONE SUPPLY FAN,Fan Air Mass Flow Rate [kg/s] !Hourly
640,1,EAST ZONE SUPPLY FAN,Fan Electric Power [W] !Hourly
641,1,EAST ZONE SUPPLY FAN,Fan Rise in Air Temperature [deltaC] !Hourly
642,1,EAST ZONE SUPPLY FAN,Fan Heat Gain to Air [W] !Hourly
643,1,EAST ZONE SUPPLY FAN,Fan Electric Energy [J] !Hourly
644,1,EAST ZONE SUPPLY FAN,Fan Air Mass Flow Rate [kg/s] !Hourly
645,1,WEST DATA CENTER IEC,Evaporative Cooler Total Stage Effectiveness [] !TimeStep
646,1,WEST DATA CENTER IEC,Evaporative Cooler Operating Mode Status [] !TimeStep
647,1,EAST DATA CENTER IEC,Evaporative Cooler Total Stage Effectiveness [] !TimeStep
648,1,EAST DATA CENTER IEC,Evaporative Cooler Operating Mode Status [] !TimeStep
649,1,WEST DATA CENTER DEC,Evaporative Cooler Stage Effectiveness [] !TimeStep
650,1,EAST DATA CENTER DEC,Evaporative Cooler Stage Effectiveness [] !TimeStep
662,1,WEST DATA CENTER IEC,Evaporative Cooler Electric Power [W] !TimeStep
663,1,WEST DATA CENTER IEC,Evaporative Cooler Water Volume [m3] !TimeStep
726,1,EAST DATA CENTER IEC,Evaporative Cooler Electric Power [W] !TimeStep
727,1,EAST DATA CENTER IEC,Evaporative Cooler Water Volume [m3] !TimeStep
730,1,WEST DATA CENTER DEC,Evaporative Cooler Electric Power [W] !TimeStep
731,1,WEST DATA CENTER DEC,Evaporative Cooler Water Volume [m3] !TimeStep
734,1,EAST DATA CENTER DEC,Evaporative Cooler Electric Power [W] !TimeStep
735,1,EAST DATA CENTER DEC,Evaporative Cooler Water Volume [m3] !TimeStep
737,1,WEST DX COOLING COIL,Cooling Coil Total Cooling Rate [W] !TimeStep
739,1,WEST DX COOLING COIL,Cooling Coil Sensible Cooling Rate [W] !TimeStep
741,1,EAST DX COOLING COIL,Cooling Coil Total Cooling Rate [W] !TimeStep
743,1,EAST DX COOLING COIL,Cooling Coil Sensible Cooling Rate [W] !TimeStep
766,1,CHILLER,Chiller Evaporator Cooling Rate [W] !Hourly
788,1,CHILLER,Chiller Evaporator Inlet Temperature [C] !Hourly
789,1,CHILLER,Chiller Evaporator Outlet Temperature [C] !Hourly
790,1,CHILLER,Chiller Condenser Heat Transfer Rate [W] !Hourly
802,1,CHILLER,Chiller Condenser Inlet Temperature [C] !Hourly
803,1,CHILLER,Chiller Condenser Outlet Temperature [C] !Hourly
892,1,WEST ZONE INLET NODE,System Node Temperature [C] !TimeStep
893,1,WEST ZONE INLET NODE,System Node Mass Flow Rate [kg/s] !TimeStep
894,1,WEST OUTSIDE AIR INLET NODE,System Node Temperature [C] !TimeStep
895,1,WEST OUTSIDE AIR INLET NODE,System Node Mass Flow Rate [kg/s] !TimeStep
896,1,WEST IEC SECONDARY AIR INLET NODE,System Node Temperature [C] !TimeStep
897,1,WEST IEC SECONDARY AIR INLET NODE,System Node Mass Flow Rate [kg/s] !TimeStep
898,1,WEST ZONE DEC OUTLET NODE,System Node Temperature [C] !TimeStep
899,1,WEST ZONE DEC OUTLET NODE,System Node Setpoint Temperature [C] !TimeStep
900,1,WEST ZONE IEC OUTLET NODE,System Node Temperature [C] !TimeStep
901,1,WEST ZONE IEC OUTLET NODE,System Node Setpoint Temperature [C] !TimeStep
902,1,WEST ZONE CCOIL AIR OUTLET NODE,System Node Temperature [C] !TimeStep
903,1,WEST ZONE CCOIL AIR OUTLET NODE,System Node Setpoint Temperature [C] !TimeStep
904,1,WEST AIR LOOP OUTLET NODE,System Node Temperature [C] !TimeStep
905,1,WEST AIR LOOP OUTLET NODE,System Node Setpoint Temperature [C] !TimeStep
906,1,EAST ZONE INLET NODE,System Node Temperature [C] !TimeStep
907,1,EAST ZONE INLET NODE,System Node Mass Flow Rate [kg/s] !TimeStep
908,1,EAST OUTSIDE AIR INLET NODE,System Node Temperature [C] !TimeStep
909,1,EAST OUTSIDE AIR INLET NODE,System Node Mass Flow Rate [kg/s] !TimeStep
910,1,EAST IEC SECONDARY AIR INLET NODE,System Node Temperature [C] !TimeStep
911,1,EAST IEC SECONDARY AIR INLET NODE,System Node Mass Flow Rate [kg/s] !TimeStep
912,1,EAST ZONE DEC OUTLET NODE,System Node Temperature [C] !TimeStep
913,1,EAST ZONE DEC OUTLET NODE,System Node Setpoint Temperature [C] !TimeStep
914,1,EAST ZONE IEC OUTLET NODE,System Node Temperature [C] !TimeStep
915,1,EAST ZONE IEC OUTLET NODE,System Node Setpoint Temperature [C] !TimeStep
916,1,EAST ZONE CCOIL AIR OUTLET NODE,System Node Temperature [C] !TimeStep
917,1,EAST ZONE CCOIL AIR OUTLET NODE,System Node Setpoint Temperature [C] !TimeStep
918,1,EAST AIR LOOP OUTLET NODE,System Node Temperature [C] !TimeStep
919,1,EAST AIR LOOP OUTLET NODE,System Node Setpoint Temperature [C] !TimeStep
920,1,WEST ZONE RETURN AIR NODE,System Node Temperature [C] !TimeStep
921,1,WEST ZONE RETURN AIR NODE,System Node Mass Flow Rate [kg/s] !TimeStep
922,1,WEST ZONE MIXED AIR NODE,System Node Temperature [C] !TimeStep
923,1,WEST ZONE MIXED AIR NODE,System Node Mass Flow Rate [kg/s] !TimeStep
924,1,WEST ZONE SUPPLY FAN OUTLET NODE,System Node Temperature [C] !TimeStep
925,1,EAST ZONE SUPPLY FAN OUTLET NODE,System Node Temperature [C] !TimeStep
926,1,WEST IEC SECONDARY AIR OUTLET NODE,System Node Temperature [C] !TimeStep
927,1,WEST IEC SECONDARY AIR OUTLET NODE,System Node Mass Flow Rate [kg/s] !TimeStep
End of Data Dictionary
1,WHOLEYEARDAY,  37.62,-122.40,  -8.00,   2.00
2,1, 1, 1, 0, 1, 0.00,15.00,Tuesday
6,6.825
239,1.0300298866314462
312,22.663205260964064
313,29.372711443207149
349,23.102186941759955
350,28.582570070534186
599,0.0
600,0.0
603,0.0
604,0.0
645,0.0
647,0.0
649,0.0
650,0.0
662,0.0
663,0.0
726,0.0
727,0.0
730,0.0
731,0.0
734,0.0
735,0.0
737,0.0
739,0.0
741,0.0
743,0.0
892,12.827348736492758
893,1.7522960000000004
894,6.825
895,1.45344426963567
896,6.825
897,0.0
898,10.00654357476759
899,10.006546
900,10.00654357476759
901,10.006546
902,10.00654357476759
903,10.006546
904,10.00654357476759
905,10.006546
906,12.973788519057129
907,1.7507540000000002
908,6.825
909,1.4618804164122575
910,6.825
911,0.0
912,10.012129554876048
913,10.012132
914,10.012129554876048
915,10.012132
916,10.012129554876048
917,10.012132
918,10.012129554876048
919,10.012132
920,22.755894950424805
921,1.7522960000000004
922,9.54106300518777
923,1.7522960000000004
924,10.00654357476759
925,10.012129554876048
926,6.825
927,0.0
646,0.0
648,0.0
2,1, 1, 1, 0, 1,15.00,30.00,Tuesday
6,6.95
239,1.0467026046341395
312,23.323447639212654
313,28.865353655134457
349,24.325300988326498
350,27.13433166167197
599,0.0
600,0.0
603,0.0
604,0.0
645,0.0
647,0.0
649,0.0
650,0.0
662,0.0
663,0.0
726,0.0
727,0.0
730,0.0
731,0.0
734,0.0
735,0.0
737,0.0
739,0.0
741,0.0
743,0.0
892,13.034249796842549
893,1.7522960000000004
894,6.95
895,1.470630030517606
896,6.95
897,0.0
898,10.006542128059463
899,10.006546
900,10.006542128059463
901,10.006546
902,10.006542128059463
903,10.006546
904,10.006542128059463
905,10.006546
906,13.233856345106796
907,1.750754
908,6.95
909,1.4872855868951152
910,6.95
911,0.0
912,10.012127922384991
913,10.012132
914,10.012127922384991
915,10.012132
916,10.012127922384991
917,10.012132
918,10.012127922384991
919,10.012132
920,23.08245042364887
921,1.7522960000000004
922,9.541195249387649
923,1.7522960000000004
924,10.006542128059463
925,10.012127922384991
926,6.95
927,0.0
646,0.0
648,0.0
2,1, 1, 1, 0, 1,30.00,45.00,Tuesday
6,7.075
239,1.0390201695319708
312,23.51585238033437
313,28.98769852556468
349,24.668478937229169
350,26.987811484685257
599,0.0
600,0.0
603,0.0
604,0.0
645,0.0
647,0.0
649,0.0
650,0.0
662,0.0
663,0.0
726,0.0
727,0.0
730,0.0
731,0.0
734,0.0
735,0.0
737,0.0
739,0.0
741,0.0
743,0.0
892,13.044909900872686
893,1.7522960000000004
894,7.075
895,1.4875351939064548
896,7.075
897,0.0
898,10.00654446461165
899,10.006546
900,10.00654446461165
901,10.006546
902,10.00654446461165
903,10.006546
904,10.00654446461165
905,10.006546
906,13.250647557559719
907,1.750754
908,7.075
909,1.506739242854298
910,7.075
911,0.0
912,10.012130451936383
913,10.012132
914,10.012130451936383
915,10.012132
916,10.012130451936383
917,10.012132
918,10.012130451936383
919,10.012132
920,23.407297378829555
921,1.7522960000000004
922,9.541332474352565
923,1.7522960000000004
924,10.00654446461165
925,10.012130451936383
926,7.075
927,0.0
646,0.0
648,0.0
2,1, 1, 1, 0, 1,45.00,60.00,Tuesday
6,7.2
239,1.0389251863541363
312,23.64033514323141
313,29.314466297120839
349,24.914810731833243
350,27.082532004643178
599,0.0
600,0.0
603,0.0
604,0.0
645,0.0
647,0.0
649,0.0
650,0.0
662,0.0
663,0.0
726,0.0
727,0.0
730,0.0
731,0.0
734,0.0
735,0.0
737,0.0
739,0.0
741,0.0
743,0.0
892,13.057575907886895
893,1.7522960000000004
894,7.2
895,1.5010718032884459
896,7.2
897,0.0
898,10.006546938734428
899,10.006546
900,10.006546938734428
901,10.006546
902,10.006546938734428
903,10.006546
904,10.006546938734428
905,10.006546
906,13.270632793378802
907,1.7507540000000002
908,7.2
909,1.520955734309832
910,7.2
911,0.0
912,10.012132855251755
913,10.012132
914,10.012132855251755
915,10.012132
916,10.012132855251755
917,10.012132
918,10.012132855251755
919,10.012132
920,23.543054696089706
921,1.7522960000000004
922,9.541472302271583
923,1.7522960000000004
924,10.006546938734428
925,10.012132855251755
926,7.2
927,0.0
646,0.0
648,0.0
2,1, 1, 1, 0, 1, 0.00,60.00,Tuesday
133,11878.770434720791
134,8161.358187931401
135,2004.0128622652187
136,13936.849545599995
137,10219.334400000002
138,2004.0128622652187
139,22044.14148491741
173,2.995645878481386
174,13.892406420678699
175,4.321804556016049
176,0.5242145767319844
177,21.84187407575342
178,0.11537280605584247
179,1.0
180,0.0
181,0.0
182,0.0
183,0.0
184,0.0
185,1.0
186,0.0
187,0.0
188,0.0
189,0.0
190,0.0
191,-19.475785423268019
192,11878.770434720791
193,8161.358187931401
194,2004.0128622652187
195,13936.849545599995
196,10219.334400000002
197,2004.0128622652187
198,22044.14148491741
199,13706.053692949981
200,9559.31122338882
201,2326.5364916338795
202,15546.354479999996
203,11399.520000000002
204,2326.5364916338795
205,25591.901407972684
209,3.505803145661269
210,14.112142592726578
211,4.3210301305892149
212,0.5167756009985427
213,22.004415005140304
214,0.12213028057213052
215,1.0
216,0.0
217,0.0
218,0.0
219,0.0
220,0.0
221,1.0
222,0.0
223,0.0
224,0.0
225,0.0
226,0.0
227,-19.483224399001459
228,13706.053692949981
229,9559.31122338882
230,2326.5364916338795
231,15546.354479999996
232,11399.520000000002
233,2326.5364916338795
234,25591.901407972684
315,20.0
316,23.0
352,20.0
353,23.0
387,0.0
388,0.0
422,0.0
423,0.0
525,0.0
526,0.0
527,0.75
528,0.0
529,0.0
530,0.0
531,0.75
532,0.0
533,0.0
534,0.0
535,0.0
536,0.0
537,0.0
538,0.0
539,0.0
540,0.0
314,4.0
351,4.0
386,0.0
421,0.0
517,47664.44289289009
518,1933.5465681000467
519,49597.98946099014
520,0.0
521,0.08333333333333333
522,0.0
523,0.0
524,0.08333333333333333
541,0.28090213732792487
542,0.4
543,1.2276925700234558
544,0.25050076663044376
545,0.4
546,1.2410186595172877
605,919.2256917323441
606,0.46527851874339157
607,827.3031225591097
608,3309212.490236439
639,1.752296
640,1014.3208763677026
641,0.5138625292359751
642,912.8887887309323
643,3651555.154923729
644,1.750754
766,0.0
788,10.204275065416635
789,10.204275065416635
790,0.0
802,9.932642824348998
803,9.932642824348998
2,1, 1, 1, 0, 2, 0.00,15.00,Tuesday
6,7.2
239,1.038647265201667
312,23.780290615253568
313,29.95079721649067
349,25.206626645805306
350,27.42455193738016
599,0.0
600,0.0
603,0.0
604,0.0
645,0.0
647,0.0
649,0.0
650,0.0
662,0.0
663,0.0
726,0.0
727,0.0
730,0.0
731,0.0
734,0.0
735,0.0
737,0.0
739,0.0
741,0.0
743,0.0
892,13.065078807816019
893,1.7522960000000004
894,7.2
895,1.5036707316221104
896,7.2
897,0.0
898,10.006530236967155
899,10.006546
900,10.006530236967155
901,10.006546
902,10.006530236967155
903,10.006546
904,10.006530236967155
905,10.006546
906,13.28437586139641
907,1.7507540000000002
908,7.2
909,1.5251970589048137
910,7.2
911,0.0
912,10.01211604809072
913,10.012132
914,10.01211604809072
915,10.012132
916,10.01211604809072
917,10.012132
918,10.01211604809072
919,10.012132
920,23.71041327461778
921,1.7522960000000004
922,9.541473435528273
923,1.7522960000000004
924,10.006530236967155
925,10.01211604809072
926,7.2
927,0.0
646,0.0
648,0.0
2,1, 1, 1, 0, 2,15.00,30.00,Tuesday
6,7.2
239,1.0385279613696806
312,23.881204591927817
313,30.400583909379426
349,25.4225758401299
350,27.676344800461373
599,0.0
600,0.0
603,0.0
604,0.0
645,0.0
647,0.0
649,0.0
650,0.0
662,0.0
663,0.0
726,0.0
727,0.0
730,0.0
731,0.0
734,0.0
735,0.0
737,0.0
739,0.0
741,0.0
743,0.0
892,13.072806706840215
893,1.7522960000000004
894,7.2
895,1.5047571912290663
896,7.2
897,0.0
898,10.006531963677821
899,10.006546
900,10.006531963677821
901,10.006546
902,10.006531963677821
903,10.006546
904,10.006531963677821
905,10.006546
906,13.299643042952422
907,1.7507540000000002
908,7.2
909,1.527196964286474
910,7.2
911,0.0
912,10.012117476448222
913,10.012132
914,10.012117476448222
915,10.012132
916,10.012117476448222
917,10.012132
918,10.012117476448222
919,10.012132
920,23.78029061525357
921,1.7522960000000004
922,9.541488969513836
923,1.7522960000000004
924,10.006531963677821
925,10.012117476448222
926,7.2
927,0.0
646,0.0
648,0.0
2,1, 1, 1, 0, 2,30.00,45.00,Tuesday
6,7.2
239,1.038421523595356
312,23.947232933202444
313,30.533481338870545
349,25.56631219768939
350,27.70175013387276
599,0.0
600,0.0
603,0.0
604,0.0
645,0.0
647,0.0
649,0.0
650,0.0
662,0.0
663,0.0
726,0.0
727,0.0
730,0.0
731,0.0
734,0.0
735,0.0
737,0.0
739,0.0
741,0.0
743,0.0
892,13.08217622207641
893,1.7522960000000004
894,7.2
895,1.5062980137225959
896,7.2
897,0.0
898,10.006530781748147
899,10.006546
900,10.006530781748147
901,10.006546
902,10.006530781748147
903,10.006546
904,10.006530781748147
905,10.006546
906,13.318109002120766
907,1.7507540000000002
908,7.2
909,1.5298875558927912
910,7.2
911,0.0
912,10.012115965282784
913,10.012132
914,10.012115965282784
915,10.012132
916,10.012115965282784
917,10.012132
918,10.012115965282784
919,10.012132
920,23.88120459192782
921,1.7522960000000004
922,9.541502965817929
923,1.7522960000000004
924,10.006530781748147
925,10.012115965282784
926,7.2
927,0.0
646,0.0
648,0.0
2,1, 1, 1, 0, 2,45.00,60.00,Tuesday
6,7.2
239,1.0382461106340915
312,24.000868736822175
313,30.503695305185738
349,25.682902413135414
350,27.586399624660126
599,0.0
600,0.0
603,0.0
604,0.0
645,0.0
647,0.0
649,0.0
650,0.0
662,0.0
663,0.0
726,0.0
727,0.0
730,0.0
731,0.0
734,0.0
735,0.0
737,0.0
739,0.0
741,0.0
743,0.0
892,13.090164107488562
893,1.7522960000000004
894,7.2
895,1.50728431129192
896,7.2
897,0.0
898,10.006539209391463
899,10.006546
900,10.006539209391463
901,10.006546
902,10.006539209391463
903,10.006546
904,10.006539209391463
905,10.006546
906,13.334283064426831
907,1.7507540000000002
908,7.2
909,1.5316330977877009
910,7.2
911,0.0
912,10.012124366807563
913,10.012132
914,10.012124366807563
915,10.012132
916,10.012124366807563
917,10.012132
918,10.012124366807563
919,10.012132
920,23.947232933202434
921,1.7522960000000004
922,9.541518176396832
923,1.7522960000000004
924,10.006539209391463
925,10.012124366807563
926,7.2
927,0.0
646,0.0
648,0.0
2,1, 1, 1, 0, 2, 0.00,60.00,Tuesday
133,12350.665350912224
134,8633.229510556705
135,2098.3894861468925
136,13936.849545599995
137,10219.334400000002
138,2098.3894861468925
139,23082.284347615823
173,3.1644160808219059
174,14.146365452926354
175,5.372607140641322
176,0.5548222355752782
177,22.011338052158277
178,0.12033812531782698
179,1.0
180,0.0
181,0.0
182,0.0
183,0.0
184,0.0
185,1.0
186,0.0
187,0.0
188,0.0
189,0.0
190,0.0
191,-19.44517776442472
192,12350.665350912224
193,8633.229510556705
194,2098.3894861468925
195,13936.849545599995
196,10219.334400000002
197,2098.3894861468925
198,23082.284347615823
199,14503.040500808444
200,10356.258183899256
201,2485.929868470769
202,15546.354479999996
203,11399.520000000002
204,2485.929868470769
205,27345.22855317847
209,3.7913491346720558
210,14.496650737175413
211,5.372045181731121
212,0.5423572197786766
213,22.27346827402176
214,0.1338329208992049
215,1.0
216,0.0
217,0.0
218,0.0
219,0.0
220,0.0
221,1.0
222,0.0
223,0.0
224,0.0
225,0.0
226,0.0
227,-19.457642780221325
228,14503.040500808444
229,10356.258183899256
230,2485.929868470769
231,15546.354479999996
232,11399.520000000002
233,2485.929868470769
234,27345.22855317847
315,20.0
316,23.0
352,20.0
353,23.0
387,0.0
388,0.0
422,0.0
423,0.0
525,0.0
526,0.0
527,1.0
528,0.0
529,0.0
530,0.0
531,1.0
532,0.0
533,0.0
534,0.0
535,0.0
536,0.0
537,0.0
538,0.0
539,0.0
540,0.0
314,4.0
351,4.0
386,0.0
421,0.0
517,50455.91290079428
518,1933.5465681000467
519,52389.45946889433
520,0.0
521,0.0
522,0.0
523,0.0
524,0.0
541,0.28090213732792487
542,0.4
543,1.2503933268356003
544,0.25050076663044376
545,0.4
546,1.2694761048459127
605,919.2256917323441
606,0.4650371611319293
607,827.3031225591097
608,3309212.490236439
639,1.752296
640,1014.3208763677026
641,0.5135972429155995
642,912.8887887309323
643,3651555.154923729
644,1.750754
766,0.0
788,10.204275065416635
789,10.204275065416635
790,0.0
802,9.932642824348998
803,9.932642824348998
2,1, 1, 1, 0, 3, 0.00,15.00,Tuesday
6,7.075
239,1.0380933106208735
312,24.04608859435667
313,30.46843835038534
349,25.78570921158055
350,27.462624281212585
599,0.0
600,0.0
603,0.09000720291350178
604,0.09000720291350178
645,0.0
647,0.0
649,0.0
650,0.0
662,0.0
663,0.0
726,0.0
727,0.0
730,0.0
731,0.0
734,0.0
735,0.0
737,0.0
739,0.0
741,0.0
743,0.0
892,13.0973211985859
893,1.7522960000000004
894,7.075
895,1.496959584471722
896,7.075
897,0.0
898,10.006591989094597
899,10.006546
900,10.006591989094597
901,10.006546
902,10.006591989094597
903,10.006546
904,10.006591989094597
905,10.006546
906,13.349061599355313
907,1.7507540000000002
908,7.075
909,1.522745639338401
910,7.075
911,0.0
912,10.012183592815461
913,10.012132
914,10.012183592815461
915,10.012132
916,10.012183592815461
917,10.012132
918,10.012132950786932
919,10.012132
920,24.000868736822175
921,1.7522960000000004
922,9.541524968915184
923,1.7522960000000004
924,10.006591989094597
925,10.012183592815461
926,7.075
927,0.0
646,0.0
648,0.0
2,1, 1, 1, 0, 3,15.00,30.00,Tuesday
6,6.95
239,1.0379655496321659
312,24.08254820654568
313,30.331807780091208
349,25.874736625620416
350,27.260291599811077
599,0.0
600,0.0
603,0.09303846353679148
604,0.09303846353679148
645,0.0
647,0.0
649,0.0
650,0.0
662,0.0
663,0.0
726,0.0
727,0.0
730,0.0
731,0.0
734,0.0
735,0.0
737,0.0
739,0.0
741,0.0
743,0.0
892,13.10387807433618
893,1.7522960000000004
894,6.95
895,1.4867249798659835
896,6.95
897,0.0
898,10.006591585397882
899,10.006546
900,10.006591585397882
901,10.006546
902,10.006591585397882
903,10.006546
904,10.006591585397882
905,10.006546
906,13.362707229419656
907,1.7507540000000002
908,6.95
909,1.513917296060973
910,6.95
911,0.0
912,10.01218345529025
913,10.012132
914,10.01218345529025
915,10.012132
916,10.01218345529025
917,10.012132
918,10.01213110249778
919,10.012132
920,24.046088594356669
921,1.7522960000000004
922,9.541478994648159
923,1.7522960000000004
924,10.006591585397882
925,10.01218345529025
926,6.95
927,0.0
646,0.0
648,0.0
2,1, 1, 1, 0, 3,30.00,45.00,Tuesday
6,6.825
239,1.0378523218752494
312,24.11214458210002
313,30.069542773750525
349,25.951316552449524
350,26.957008618025019
599,0.0
600,0.0
603,0.09303810756329942
604,0.09303810756329942
645,0.0
647,0.0
649,0.0
650,0.0
662,0.0
663,0.0
726,0.0
727,0.0
730,0.0
731,0.0
734,0.0
735,0.0
737,0.0
739,0.0
741,0.0
743,0.0
892,13.109819611836825
893,1.7522960000000004
894,6.825
895,1.4765450612904368
896,6.825
897,0.0
898,10.006593345378459
899,10.006546
900,10.006593345378459
901,10.006546
902,10.006593345378459
903,10.006546
904,10.006593345378459
905,10.006546
906,13.375164555082355
907,1.7507540000000002
908,6.825
909,1.505116300542084
910,6.825
911,0.0
912,10.012185029267626
913,10.012132
914,10.012185029267626
915,10.012132
916,10.012185029267626
917,10.012132
918,10.012132671273936
919,10.012132
920,24.082548206545679
921,1.7522960000000004
922,9.541433442065032
923,1.7522960000000004
924,10.006593345378459
925,10.012185029267626
926,6.825
927,0.0
646,0.0
648,0.0
2,1, 1, 1, 0, 3,45.00,60.00,Tuesday
6,6.7
239,1.0377520881094027
312,24.1368833184925
313,29.743508993971298
349,26.017883515452409
350,26.602015555294263
599,0.0
600,0.0
603,0.09303777985749784
604,0.09303777985749784
645,0.0
647,0.0
649,0.0
650,0.0
662,0.0
663,0.0
726,0.0
727,0.0
730,0.0
731,0.0
734,0.0
735,0.0
737,0.0
739,0.0
741,0.0
743,0.0
892,13.115021601477695
893,1.7522960000000004
894,6.7